 Gaussian 09, Revision D.01,
 Gaussian 09:  EM64L-G09RevD.01 24-Apr-2013

 ----------------------------------------------------------------------
 #p b3lyp cc-pVTZ empiricaldispersion=gd3bj scrf=(pcm,solvent=diethylet
 her)
 ----------------------------------------------------------------------

 -----
 title
 -----
 Symbolic Z-matrix:
 Charge =  0 Multiplicity = 1

                         Standard orientation:
 ---------------------------------------------------------------------
 Center     Atomic      Atomic             Coordinates (Angstroms)
 Number     Number       Type             X           Y           Z
 ---------------------------------------------------------------------
      1         16           0       -2.270803    1.191536   -0.707830
      2          8           0       -0.514971   -3.008295    1.433344
      3          7           0        0.454964   -2.248695   -0.468513
      4          7           0       -1.937773   -0.592231    1.279622
      5          1           0       -2.315028   -1.338077    1.854525
      6          7           0       -4.095718   -0.254061    0.671112
      7          1           0       -4.265416   -1.063910    1.256770
      8          6           0        0.791197   -1.201037   -1.475237
      9          1           0       -0.115879   -0.618309   -1.665224
     10          6           0        1.119819   -2.021120   -2.744299
     11          1           0        2.193328   -2.221653   -2.801169
     12          1           0        0.840158   -1.463355   -3.641415
     13          6           0        0.333809   -3.325050   -2.565014
     14          1           0        0.728563   -4.148145   -3.166758
     15          1           0       -0.716402   -3.175215   -2.839566
     16          6           0        0.438856   -3.597579   -1.062340
     17          1           0        1.356316   -4.144913   -0.810338
     18          1           0       -0.399996   -4.158828   -0.648857
     19          6           0       -0.146637   -2.056497    0.732615
     20          6           0       -0.480541   -0.623173    1.180288
     21          1           0       -0.209339    0.101961    0.420439
     22          6           0       -2.785422    0.073728    0.457917
     23          6           0        0.186323   -0.182661    2.521694
     24          6           0       -0.085736    1.321759    2.693837
     25          1           0       -1.160751    1.529062    2.715996
     26          1           0        0.349731    1.679906    3.633647
     27          1           0        0.354209    1.897951    1.872148
     28          6           0       -0.378269   -0.945741    3.732291
     29          1           0       -0.232363   -2.023103    3.629028
     30          1           0        0.128704   -0.608071    4.643238
     31          1           0       -1.448713   -0.751380    3.866586
     32          6           0        1.702483   -0.414140    2.438928
     33          1           0        2.153201    0.178539    1.640765
     34          1           0        2.172801   -0.116963    3.382883
     35          1           0        1.946107   -1.467038    2.260740
     36          6           0        3.001147    4.509307   -0.592020
     37          6           0        2.112549    3.503193   -0.914521
     38          6           0        2.497594    2.145089   -0.835374
     39          6           0        3.811426    1.801164   -0.414639
     40          6           0        4.305868    4.176690   -0.181182
     41          6           0        1.568787    1.109317   -1.162875
     42          6           0        4.166836    0.392360   -0.319070
     43          6           0        3.199777   -0.613506   -0.637355
     44          6           0        1.874714   -0.217399   -1.073050
     45          6           0        3.567191   -1.971425   -0.482473
     46          1           0        2.842123   -2.744184   -0.686173
     47          6           0        4.827913   -2.339511   -0.055056
     48          6           0        5.781943   -1.352276    0.239557
     49          1           0        0.567512    1.405073   -1.464049
     50          1           0        2.697673    5.550190   -0.653034
     51          1           0        1.099819    3.738019   -1.230940
     52          1           0        5.009927    4.963673    0.073094
     53          1           0        5.075575   -3.391099    0.055569
     54          1           0        6.775871   -1.633617    0.574711
     55          6           0        4.699961    2.853432   -0.094459
     56          6           0        5.449876   -0.017581    0.110472
     57          6           0       -5.264111    0.274144    0.065723
     58          6           0       -6.276180   -0.625882   -0.286667
     59          6           0       -5.459304    1.648285   -0.111539
     60          6           0       -7.474149   -0.156589   -0.823399
     61          1           0       -6.118502   -1.691881   -0.144704
     62          6           0       -6.653905    2.106123   -0.664508
     63          1           0       -4.683386    2.342918    0.181194
     64          6           0       -7.664955    1.211381   -1.022313
     65          1           0       -8.252850   -0.863953   -1.093022
     66          1           0       -6.797966    3.173614   -0.803750
     67          1           0       -8.594362    1.577925   -1.447678
     68          1           0        5.710671    2.634701    0.229756
     69          1           0        6.197804    0.728055    0.352958
 ---------------------------------------------------------------------

 SCF Done:  E(RB3LYP) =  -1839.61565683     A.U. after   13 cycles

 The electronic state is 1-A.
 Alpha  occ. eigenvalues --  -88.83541 -19.09895 -14.37069 -14.36214 -14.35596
 Alpha  occ. eigenvalues --  -10.30362 -10.27964 -10.23141 -10.22717 -10.22334
 Alpha  occ. eigenvalues --  -10.21069 -10.19842 -10.19754 -10.19678 -10.19452
 Alpha  occ. eigenvalues --  -10.19444 -10.19251 -10.18665 -10.18550 -10.18407
 Alpha  occ. eigenvalues --  -10.18399 -10.18379 -10.18348 -10.18334 -10.18306
 Alpha  occ. eigenvalues --  -10.18289 -10.18253 -10.18249 -10.18242 -10.18204
 Alpha  occ. eigenvalues --  -10.18181 -10.18135 -10.18095 -10.15755 -10.15714
 Alpha  occ. eigenvalues --  -10.15669  -7.88891  -5.85381  -5.84817  -5.84515
 Alpha  occ. eigenvalues --   -1.04469  -1.00516  -0.95092  -0.93473  -0.89010
 Alpha  occ. eigenvalues --   -0.85783  -0.85526  -0.82538  -0.82377  -0.80007
 Alpha  occ. eigenvalues --   -0.78476  -0.76807  -0.76562  -0.75539  -0.75146
 Alpha  occ. eigenvalues --   -0.73176  -0.72991  -0.71778  -0.70940  -0.68487
 Alpha  occ. eigenvalues --   -0.68389  -0.65460  -0.63813  -0.63066  -0.62707
 Alpha  occ. eigenvalues --   -0.62207  -0.61553  -0.60084  -0.58898  -0.58487
 Alpha  occ. eigenvalues --   -0.56896  -0.56284  -0.54943  -0.54363  -0.54054
 Alpha  occ. eigenvalues --   -0.52385  -0.51498  -0.50679  -0.49364  -0.48935
 Alpha  occ. eigenvalues --   -0.48670  -0.47915  -0.47415  -0.46622  -0.46298
 Alpha  occ. eigenvalues --   -0.44789  -0.44319  -0.44236  -0.44012  -0.43526
 Alpha  occ. eigenvalues --   -0.43307  -0.43039  -0.42937  -0.42497  -0.42341
 Alpha  occ. eigenvalues --   -0.42087  -0.41637  -0.40990  -0.40814  -0.40210
 Alpha  occ. eigenvalues --   -0.39654  -0.38486  -0.38351  -0.37780  -0.37681
 Alpha  occ. eigenvalues --   -0.37267  -0.36995  -0.36953  -0.36844  -0.36622
 Alpha  occ. eigenvalues --   -0.36385  -0.36231  -0.35869  -0.35566  -0.34419
 Alpha  occ. eigenvalues --   -0.33795  -0.33500  -0.33139  -0.33018  -0.32726
 Alpha  occ. eigenvalues --   -0.31359  -0.30115  -0.29425  -0.27282  -0.26738
 Alpha  occ. eigenvalues --   -0.26465  -0.25419  -0.23991  -0.23511  -0.22840
 Alpha  occ. eigenvalues --   -0.22425  -0.21723
 Alpha virt. eigenvalues --   -0.05462  -0.04850  -0.03687  -0.01928  -0.01423
 Alpha virt. eigenvalues --   -0.00390   0.01040   0.01715   0.02016   0.03446
 Alpha virt. eigenvalues --    0.04456   0.04654   0.05028   0.05057   0.05640

 Mulliken charges:
               1
     1  S   -0.449849
     2  O   -0.436487
     3  N   -0.061056
     4  N   -0.165054
     5  H    0.140389
     6  N   -0.130425
     7  H    0.146345
     8  C   -0.016346
     9  H    0.125709
    10  C   -0.179553
    11  H    0.100832
    12  H    0.106817
    13  C   -0.165442
    14  H    0.103534
    15  H    0.095560
    16  C   -0.120584
    17  H    0.092368
    18  H    0.108324
    19  C    0.192917
    20  C    0.037927
    21  H    0.155756
    22  C    0.139289
    23  C    0.181687
    24  C   -0.330077
    25  H    0.095580
    26  H    0.092061
    27  H    0.106904
    28  C   -0.333896
    29  H    0.102745
    30  H    0.090341
    31  H    0.078097
    32  C   -0.325170
    33  H    0.102923
    34  H    0.092391
    35  H    0.094521
    36  C   -0.131898
    37  C   -0.137297
    38  C    0.101456
    39  C    0.017315
    40  C   -0.142999
    41  C   -0.201126
    42  C    0.047108
    43  C    0.063037
    44  C   -0.002017
    45  C   -0.126478
    46  H    0.124992
    47  C   -0.170142
    48  C   -0.143385
    49  H    0.126510
    50  H    0.122742
    51  H    0.115560
    52  H    0.119883
    53  H    0.118193
    54  H    0.120083
    55  C   -0.126009
    56  C   -0.113946
    57  C    0.160018
    58  C   -0.167208
    59  C   -0.109112
    60  C   -0.116229
    61  H    0.112228
    62  C   -0.114773
    63  H    0.126865
    64  C   -0.135074
    65  H    0.122254
    66  H    0.122531
    67  H    0.121402
    68  H    0.112998
    69  H    0.113442
 Sum of Mulliken charges =   0.00000

 Dipole moment (field-independent basis, Debye):
    X=              0.1683    Y=             -1.8016    Z=             -0.1073  Tot=              1.8126
 Quadrupole moment (field-independent basis, Debye-Ang):
   XX=           -192.5948   YY=           -211.8820   ZZ=           -224.1184
   XY=              7.1031   XZ=             -0.5868   YZ=             10.0833

 Normal termination of Gaussian 09 at Thu Mar 30 05:14:06 2017.
