 Gaussian 09, Revision D.01,
 Gaussian 09:  EM64L-G09RevD.01 24-Apr-2013

 ----------------------------------------------------------------------
 #p b3lyp cc-pVTZ empiricaldispersion=gd3bj scrf=(pcm,solvent=diethylet
 her)
 ----------------------------------------------------------------------

 -----
 title
 -----
 Symbolic Z-matrix:
 Charge =  0 Multiplicity = 1

                         Standard orientation:
 ---------------------------------------------------------------------
 Center     Atomic      Atomic             Coordinates (Angstroms)
 Number     Number       Type             X           Y           Z
 ---------------------------------------------------------------------
      1         16           0       -2.645643    0.307076    1.574982
      2          8           0        0.173154   -1.706420   -1.605401
      3          7           0        0.550628   -2.113578    0.589255
      4          7           0       -2.317586   -0.856328   -0.832531
      5          1           0       -2.006462   -0.735468   -1.792843
      6          7           0       -2.271058    1.420401   -0.858390
      7          1           0       -1.864631    1.291305   -1.778294
      8          6           0        1.976652   -1.779652    0.447044
      9          1           0        2.352967   -2.270399   -0.452247
     10          6           0        2.584564   -2.377042    1.733239
     11          1           0        3.520087   -1.887804    2.012330
     12          1           0        2.784130   -3.444076    1.581209
     13          6           0        1.467127   -2.181254    2.766779
     14          1           0        1.462388   -1.145067    3.119458
     15          1           0        1.565369   -2.835282    3.636668
     16          6           0        0.183545   -2.467806    1.974184
     17          1           0       -0.660485   -1.867187    2.322711
     18          1           0       -0.091340   -3.527117    2.028402
     19          6           0       -0.262574   -1.994379   -0.482786
     20          6           0       -1.782014   -2.098699   -0.268383
     21          1           0       -2.027911   -2.083349    0.790641
     22          6           0       -2.400736    0.294961   -0.098353
     23          6           0       -2.438778   -3.358641   -0.894797
     24          6           0       -3.921234   -3.367845   -0.487526
     25          1           0       -4.428073   -2.464222   -0.840435
     26          1           0       -4.429036   -4.237922   -0.918828
     27          1           0       -4.032005   -3.414209    0.602017
     28          6           0       -2.327201   -3.375074   -2.428807
     29          1           0       -1.286361   -3.323065   -2.756224
     30          1           0       -2.773112   -4.296727   -2.819243
     31          1           0       -2.871882   -2.536226   -2.877406
     32          6           0       -1.738205   -4.600345   -0.317271
     33          1           0       -1.813528   -4.626402    0.776069
     34          1           0       -2.206762   -5.511441   -0.704470
     35          1           0       -0.677106   -4.629603   -0.589541
     36          6           0        2.199854   -0.275505    0.330055
     37          6           0        3.456566    0.217881   -0.147938
     38          6           0        1.221900    0.621790    0.706427
     39          6           0        4.526808   -0.635222   -0.535943
     40          6           0        3.656921    1.636467   -0.241238
     41          6           0        1.423326    2.018954    0.619083
     42          1           0        0.266377    0.261624    1.070680
     43          6           0        5.720648   -0.121602   -0.993341
     44          1           0        4.408061   -1.710982   -0.469700
     45          6           0        4.898697    2.132272   -0.719149
     46          6           0        2.613848    2.517955    0.149010
     47          1           0        0.622692    2.687201    0.920200
     48          6           0        5.911342    1.276516   -1.087657
     49          1           0        6.521987   -0.794892   -1.283911
     50          1           0        5.035020    3.208834   -0.785343
     51          1           0        2.778127    3.589860    0.073412
     52          1           0        6.856610    1.670061   -1.450074
     53          6           0       -2.359093    2.776258   -0.449330
     54          6           0       -1.365183    3.657009   -0.889564
     55          6           0       -3.429714    3.251331    0.314389
     56          6           0       -1.434829    5.009008   -0.555027
     57          1           0       -0.533133    3.277639   -1.475883
     58          6           0       -3.482779    4.601616    0.655034
     59          1           0       -4.205962    2.568529    0.634740
     60          6           0       -2.489871    5.484954    0.224475
     61          1           0       -0.658068    5.685604   -0.898812
     62          1           0       -4.313256    4.965864    1.252604
     63          1           0       -2.541052    6.536170    0.491624
 ---------------------------------------------------------------------

 SCF Done:  E(RB3LYP) =  -1685.90437392     A.U. after   13 cycles

 The electronic state is 1-A.
 Alpha  occ. eigenvalues --  -88.83764 -19.09839 -14.37228 -14.35852 -14.35568
 Alpha  occ. eigenvalues --  -10.30268 -10.27811 -10.23093 -10.22416 -10.22304
 Alpha  occ. eigenvalues --  -10.21527 -10.19933 -10.19275 -10.19136 -10.19083
 Alpha  occ. eigenvalues --  -10.18671 -10.18581 -10.18457 -10.18380 -10.18309
 Alpha  occ. eigenvalues --  -10.18269 -10.18236 -10.18219 -10.18204 -10.18195
 Alpha  occ. eigenvalues --  -10.18144 -10.17920 -10.17806 -10.17538 -10.16743
 Alpha  occ. eigenvalues --  -10.16156 -10.16066  -7.89106  -5.85583  -5.85050
 Alpha  occ. eigenvalues --   -5.84728  -1.04582  -1.00471  -0.95418  -0.93416
 Alpha  occ. eigenvalues --   -0.87877  -0.85852  -0.82970  -0.82554  -0.80548
 Alpha  occ. eigenvalues --   -0.78615  -0.76574  -0.75595  -0.74832  -0.74416
 Alpha  occ. eigenvalues --   -0.73246  -0.71650  -0.71052  -0.69134  -0.68794
 Alpha  occ. eigenvalues --   -0.65445  -0.63100  -0.62588  -0.62238  -0.61847
 Alpha  occ. eigenvalues --   -0.60657  -0.59423  -0.58069  -0.56714  -0.55484
 Alpha  occ. eigenvalues --   -0.54817  -0.54152  -0.52468  -0.51477  -0.50966
 Alpha  occ. eigenvalues --   -0.50142  -0.49434  -0.48882  -0.48197  -0.46525
 Alpha  occ. eigenvalues --   -0.46345  -0.45872  -0.44603  -0.44492  -0.44319
 Alpha  occ. eigenvalues --   -0.43224  -0.43161  -0.43107  -0.42780  -0.42406
 Alpha  occ. eigenvalues --   -0.41995  -0.41421  -0.41050  -0.40369  -0.40068
 Alpha  occ. eigenvalues --   -0.39675  -0.38833  -0.38700  -0.37846  -0.37506
 Alpha  occ. eigenvalues --   -0.37501  -0.37016  -0.36947  -0.36766  -0.36578
 Alpha  occ. eigenvalues --   -0.35988  -0.35588  -0.34972  -0.34154  -0.33805
 Alpha  occ. eigenvalues --   -0.33504  -0.33230  -0.33144  -0.32644  -0.30268
 Alpha  occ. eigenvalues --   -0.28677  -0.26834  -0.26518  -0.25534  -0.25148
 Alpha  occ. eigenvalues --   -0.24366  -0.22985  -0.22222  -0.21925
 Alpha virt. eigenvalues --   -0.05169  -0.04024  -0.02422  -0.01810  -0.00419
 Alpha virt. eigenvalues --    0.00511   0.01365   0.02449   0.03468   0.04130
 Alpha virt. eigenvalues --    0.04672   0.05132   0.05759   0.06312   0.07032

 Mulliken charges:
               1
     1  S   -0.430637
     2  O   -0.436903
     3  N   -0.059973
     4  N   -0.158767
     5  H    0.128513
     6  N   -0.116143
     7  H    0.150780
     8  C   -0.017444
     9  H    0.104073
    10  C   -0.166563
    11  H    0.106495
    12  H    0.094519
    13  C   -0.175942
    14  H    0.099093
    15  H    0.109359
    16  C   -0.128410
    17  H    0.117842
    18  H    0.111776
    19  C    0.160048
    20  C    0.069362
    21  H    0.133479
    22  C    0.117400
    23  C    0.155938
    24  C   -0.319738
    25  H    0.095934
    26  H    0.093293
    27  H    0.091823
    28  C   -0.324188
    29  H    0.101199
    30  H    0.091511
    31  H    0.084463
    32  C   -0.332670
    33  H    0.096199
    34  H    0.098177
    35  H    0.097919
    36  C    0.111232
    37  C    0.051799
    38  C   -0.171270
    39  C   -0.129432
    40  C    0.096244
    41  C   -0.174735
    42  H    0.127741
    43  C   -0.152337
    44  H    0.110032
    45  C   -0.129510
    46  C   -0.172404
    47  H    0.138224
    48  C   -0.142953
    49  H    0.118647
    50  H    0.110383
    51  H    0.110723
    52  H    0.120326
    53  C    0.175967
    54  C   -0.193307
    55  C   -0.113802
    56  C   -0.111458
    57  H    0.127880
    58  C   -0.109399
    59  H    0.126524
    60  C   -0.135451
    61  H    0.123669
    62  H    0.122839
    63  H    0.122012
 Sum of Mulliken charges =   0.00000

 Dipole moment (field-independent basis, Debye):
    X=              1.7545    Y=             -1.1748    Z=             -0.7756  Tot=              2.2495
 Quadrupole moment (field-independent basis, Debye-Ang):
   XX=           -194.8057   YY=           -173.5516   ZZ=           -202.7523
   XY=             -0.2786   XZ=              7.5925   YZ=             -9.6216

 Normal termination of Gaussian 09 at Thu Mar 30 04:43:32 2017.
