 Gaussian 09, Revision D.01,
 Gaussian 09:  EM64L-G09RevD.01 24-Apr-2013

 ----------------------------------------------------------------------
 #p b3lyp cc-pVTZ empiricaldispersion=gd3bj scrf=(pcm,solvent=diethylet
 her)
 ----------------------------------------------------------------------

 -----
 title
 -----
 Symbolic Z-matrix:
 Charge =  0 Multiplicity = 1

                         Standard orientation:
 ---------------------------------------------------------------------
 Center     Atomic      Atomic             Coordinates (Angstroms)
 Number     Number       Type             X           Y           Z
 ---------------------------------------------------------------------
      1         16           0       -2.385173    2.706592    0.871236
      2          8           0       -1.377115   -1.493977   -1.532593
      3          7           0       -1.995442   -1.798680    0.621298
      4          7           0       -2.132458    1.073705   -1.240632
      5          1           0       -1.524940    0.672543   -1.951456
      6          7           0       -0.378308    2.476430   -0.959012
      7          1           0       -0.005391    1.886087   -1.693883
      8          6           0       -0.934152   -2.820844    0.784108
      9          1           0       -1.159415   -3.644445    0.095821
     10          6           0       -1.159732   -3.307780    2.224490
     11          1           0       -0.641632   -2.651893    2.931926
     12          1           0       -0.776902   -4.321286    2.364650
     13          6           0       -2.680651   -3.198898    2.380842
     14          1           0       -3.015308   -3.227235    3.421132
     15          1           0       -3.170240   -4.017264    1.841001
     16          6           0       -3.010698   -1.849641    1.712278
     17          1           0       -4.001208   -1.873460    1.256345
     18          6           0       -2.107912   -1.186837   -0.581513
     19          6           0       -3.035323    0.034740   -0.732390
     20          1           0       -3.404156    0.374203    0.232886
     21          6           0       -1.588370    2.068127   -0.475234
     22          6           0       -4.252501   -0.176806   -1.679227
     23          6           0       -5.098631    1.106415   -1.640387
     24          1           0       -4.514637    1.969454   -1.974568
     25          1           0       -5.970056    1.005012   -2.297151
     26          1           0       -5.456354    1.314531   -0.625868
     27          6           0       -3.815573   -0.455589   -3.127136
     28          1           0       -3.200804   -1.355809   -3.197901
     29          1           0       -4.702318   -0.586607   -3.757560
     30          1           0       -3.242467    0.383729   -3.535779
     31          6           0       -5.091873   -1.357839   -1.166223
     32          1           0       -5.477341   -1.167989   -0.157950
     33          1           0       -5.954600   -1.515785   -1.822329
     34          1           0       -4.515265   -2.290350   -1.149223
     35          6           0        4.725435   -3.612647   -1.628858
     36          6           0        3.410589   -3.916297   -1.280446
     37          6           0        2.626121   -2.990837   -0.573875
     38          6           0        3.189084   -1.733500   -0.211535
     39          6           0        5.283463   -2.382540   -1.284622
     40          6           0        1.264585   -3.256107   -0.220310
     41          6           0        2.399165   -0.790603    0.508527
     42          6           0        1.042931   -1.091420    0.866247
     43          6           0        0.481642   -2.368654    0.460622
     44          6           0        0.325169   -0.117400    1.579367
     45          1           0       -0.702230   -0.297372    1.840999
     46          6           0        0.897499    1.101694    1.935323
     47          6           0        2.208384    1.398755    1.586222
     48          1           0        0.840574   -4.206730   -0.536036
     49          1           0        5.319273   -4.339286   -2.175932
     50          1           0        2.978288   -4.874353   -1.556807
     51          1           0        6.307953   -2.150173   -1.563261
     52          1           0        0.293422    1.834661    2.459152
     53          1           0        2.640233    2.362765    1.837750
     54          6           0        4.535268   -1.427615   -0.577915
     55          6           0        2.974192    0.467956    0.870155
     56          6           0        5.073724   -0.147272   -0.213663
     57          1           0        6.095363    0.085227   -0.502708
     58          6           0        4.325611    0.756008    0.476509
     59          1           0        4.737313    1.725122    0.745210
     60          6           0        0.570571    3.429451   -0.530493
     61          6           0        1.855325    3.290109   -1.081792
     62          6           0        0.320669    4.469378    0.372538
     63          6           0        2.879018    4.157561   -0.721028
     64          1           0        2.058037    2.476389   -1.773773
     65          6           0        1.360201    5.329324    0.731406
     66          1           0       -0.665040    4.589915    0.795380
     67          6           0        2.640301    5.182804    0.197499
     68          1           0        3.866877    4.022042   -1.151303
     69          1           0        1.155576    6.127585    1.439287
     70          1           0        3.438856    5.858833    0.487614
     71          6           0       -2.955019   -0.695229    2.719875
     72          1           0       -2.075669   -0.766889    3.367546
     73          1           0       -2.941647    0.286543    2.239467
     74          1           0       -3.842054   -0.749349    3.360557
 ---------------------------------------------------------------------

 SCF Done:  E(RB3LYP) =  -1955.21621966     A.U. after   14 cycles

 The electronic state is 1-A.
 Alpha  occ. eigenvalues --  -88.83682 -19.10209 -14.37548 -14.35644 -14.35615
 Alpha  occ. eigenvalues --  -10.30241 -10.28107 -10.23346 -10.22793 -10.22660
 Alpha  occ. eigenvalues --  -10.22612 -10.19815 -10.19518 -10.19390 -10.19230
 Alpha  occ. eigenvalues --  -10.19213 -10.19114 -10.19036 -10.18988 -10.18454
 Alpha  occ. eigenvalues --  -10.18449 -10.18378 -10.18375 -10.18304 -10.18268
 Alpha  occ. eigenvalues --  -10.18239 -10.18231 -10.18141 -10.18124 -10.17942
 Alpha  occ. eigenvalues --  -10.17858 -10.17729 -10.17718 -10.17562 -10.17464
 Alpha  occ. eigenvalues --  -10.16852 -10.16849 -10.15976 -10.15897  -7.89038
 Alpha  occ. eigenvalues --   -5.85516  -5.84985  -5.84655  -1.04955  -1.00530
 Alpha  occ. eigenvalues --   -0.95427  -0.93326  -0.89608  -0.85698  -0.85359
 Alpha  occ. eigenvalues --   -0.83953  -0.82719  -0.80807  -0.80188  -0.78441
 Alpha  occ. eigenvalues --   -0.76834  -0.76745  -0.75364  -0.74717  -0.73250
 Alpha  occ. eigenvalues --   -0.73113  -0.71548  -0.71148  -0.69198  -0.68670
 Alpha  occ. eigenvalues --   -0.68434  -0.64525  -0.63263  -0.63053  -0.62829
 Alpha  occ. eigenvalues --   -0.62368  -0.61990  -0.61386  -0.59590  -0.58183
 Alpha  occ. eigenvalues --   -0.56347  -0.56138  -0.54872  -0.54446  -0.53898
 Alpha  occ. eigenvalues --   -0.52590  -0.51861  -0.51115  -0.50869  -0.49780
 Alpha  occ. eigenvalues --   -0.49374  -0.48722  -0.47844  -0.47189  -0.46640
 Alpha  occ. eigenvalues --   -0.45335  -0.45286  -0.44650  -0.44120  -0.44035
 Alpha  occ. eigenvalues --   -0.43691  -0.43295  -0.43023  -0.42761  -0.42680
 Alpha  occ. eigenvalues --   -0.42519  -0.42051  -0.41902  -0.41615  -0.41372
 Alpha  occ. eigenvalues --   -0.41109  -0.40050  -0.39887  -0.39625  -0.38996
 Alpha  occ. eigenvalues --   -0.38463  -0.38321  -0.37677  -0.37527  -0.37356
 Alpha  occ. eigenvalues --   -0.36910  -0.36886  -0.36689  -0.36526  -0.36476
 Alpha  occ. eigenvalues --   -0.36281  -0.35235  -0.34565  -0.34335  -0.34110
 Alpha  occ. eigenvalues --   -0.33822  -0.33392  -0.33106  -0.33026  -0.32220
 Alpha  occ. eigenvalues --   -0.30779  -0.30209  -0.28113  -0.27404  -0.26205
 Alpha  occ. eigenvalues --   -0.26033  -0.25289  -0.23755  -0.23645  -0.22440
 Alpha  occ. eigenvalues --   -0.21910  -0.20387
 Alpha virt. eigenvalues --   -0.06619  -0.04057  -0.03712  -0.01773  -0.01696
 Alpha virt. eigenvalues --   -0.00625   0.00362   0.01371   0.02439   0.03077
 Alpha virt. eigenvalues --    0.04086   0.04232   0.04591   0.05003   0.05291

 Mulliken charges:
               1
     1  S   -0.426041
     2  O   -0.431728
     3  N   -0.070459
     4  N   -0.160098
     5  H    0.126949
     6  N   -0.086024
     7  H    0.143092
     8  C   -0.005699
     9  H    0.102167
    10  C   -0.172526
    11  H    0.103895
    12  H    0.106197
    13  C   -0.180825
    14  H    0.100829
    15  H    0.099131
    16  C   -0.003259
    17  H    0.125930
    18  C    0.161285
    19  C    0.059528
    20  H    0.142403
    21  C    0.118711
    22  C    0.176135
    23  C   -0.317052
    24  H    0.098309
    25  H    0.092454
    26  H    0.090092
    27  C   -0.323776
    28  H    0.099334
    29  H    0.090989
    30  H    0.085357
    31  C   -0.337357
    32  H    0.095466
    33  H    0.098304
    34  H    0.097911
    35  C   -0.147036
    36  C   -0.156871
    37  C    0.095431
    38  C    0.031660
    39  C   -0.161572
    40  C   -0.219852
    41  C    0.020136
    42  C    0.114275
    43  C    0.043756
    44  C   -0.170547
    45  H    0.124324
    46  C   -0.176284
    47  C   -0.139815
    48  H    0.089721
    49  H    0.118527
    50  H    0.108438
    51  H    0.110015
    52  H    0.109266
    53  H    0.119307
    54  C    0.071896
    55  C    0.092388
    56  C   -0.160294
    57  H    0.111538
    58  C   -0.149717
    59  H    0.110025
    60  C    0.145366
    61  C   -0.149944
    62  C   -0.122013
    63  C   -0.121122
    64  H    0.105510
    65  C   -0.110026
    66  H    0.133293
    67  C   -0.149604
    68  H    0.125359
    69  H    0.123577
    70  H    0.121133
    71  C   -0.311948
    72  H    0.094137
    73  H    0.122370
    74  H    0.105574
 Sum of Mulliken charges =   0.00000

 Dipole moment (field-independent basis, Debye):
    X=             -0.0885    Y=             -3.4081    Z=              0.0955  Tot=              3.4106
 Quadrupole moment (field-independent basis, Debye-Ang):
   XX=           -221.3648   YY=           -233.1177   ZZ=           -237.1440
   XY=             22.1762   XZ=             -8.2720   YZ=             -5.2460

 Normal termination of Gaussian 09 at Thu Mar 30 06:35:06 2017.
