 Gaussian 09, Revision D.01,
 Gaussian 09:  EM64L-G09RevD.01 24-Apr-2013

 ----------------------------------------------------------------------
 #p b3lyp cc-pVTZ empiricaldispersion=gd3bj scrf=(pcm,solvent=diethylet
 her)
 ----------------------------------------------------------------------

 -----
 title
 -----
 Symbolic Z-matrix:
 Charge =  0 Multiplicity = 1

                         Standard orientation:
 ---------------------------------------------------------------------
 Center     Atomic      Atomic             Coordinates (Angstroms)
 Number     Number       Type             X           Y           Z
 ---------------------------------------------------------------------
      1         16           0       -1.103088   -1.619360    1.751612
      2          8           0        1.568067    0.005551   -1.652851
      3          7           0        2.216051    0.496799    0.470066
      4          7           0        0.082781   -2.021269   -0.635099
      5          1           0        0.058781   -1.799148   -1.627140
      6          7           0       -2.079489   -1.317039   -0.748996
      7          1           0       -1.847796   -1.138215   -1.719796
      8          6           0        0.916091    3.771213   -0.865790
      9          1           0        1.814976    4.250421   -1.239261
     10          6           0       -0.320029    4.370790   -1.112760
     11          1           0       -0.361032    5.300650   -1.673643
     12          6           0       -1.495591    3.780429   -0.647180
     13          6           0       -1.420125    2.586109    0.070372
     14          1           0       -2.322921    2.108391    0.439043
     15          6           0       -0.183274    1.988753    0.313334
     16          1           0       -0.157390    1.053696    0.861360
     17          6           0        1.004767    2.568428   -0.152762
     18          6           0        2.372897    1.950378    0.170367
     19          6           0        2.901101    2.496701    1.524128
     20          1           0        2.629752    3.546206    1.659429
     21          1           0        3.995372    2.423620    1.535182
     22          6           0        2.303556    1.564537    2.577291
     23          1           0        1.257739    1.823328    2.770105
     24          1           0        2.841387    1.588337    3.528511
     25          6           0        2.385845    0.191605    1.905393
     26          1           0        1.603879   -0.482664    2.258238
     27          1           0        3.362614   -0.276252    2.077151
     28          6           0        1.775279   -0.352486   -0.485485
     29          6           0        1.428250   -1.802439   -0.098245
     30          1           0        1.351587   -1.922431    0.978503
     31          6           0       -1.034712   -1.649432    0.061998
     32          6           0        2.446052   -2.856083   -0.616842
     33          6           0        2.026563   -4.228125   -0.063649
     34          1           0        1.019844   -4.494574   -0.400068
     35          1           0        2.720496   -5.003903   -0.406355
     36          1           0        2.028191   -4.230001    1.032492
     37          6           0        2.499691   -2.916491   -2.152556
     38          1           0        2.757715   -1.946869   -2.584403
     39          1           0        3.250861   -3.650701   -2.464808
     40          1           0        1.539724   -3.235829   -2.574485
     41          6           0        3.836813   -2.487587   -0.071545
     42          1           0        3.834604   -2.438335    1.023524
     43          1           0        4.569665   -3.245172   -0.369268
     44          1           0        4.180830   -1.521096   -0.456523
     45          1           0       -2.458098    4.245688   -0.840967
     46          6           0       -3.385907   -0.902447   -0.380998
     47          6           0       -3.912708    0.228741   -1.014012
     48          6           0       -4.161527   -1.618384    0.535767
     49          6           0       -5.209108    0.650774   -0.721061
     50          1           0       -3.298781    0.783530   -1.717817
     51          6           0       -5.451042   -1.180423    0.832102
     52          1           0       -3.754814   -2.502801    1.008365
     53          6           0       -5.980433   -0.048124    0.208464
     54          1           0       -5.609428    1.531138   -1.215055
     55          1           0       -6.048537   -1.736083    1.548844
     56          1           0       -6.987294    0.283975    0.443024
     57          6           0        3.414874    2.181769   -0.933082
     58          1           0        3.026770    1.902078   -1.911530
     59          1           0        3.724464    3.231216   -0.949929
     60          1           0        4.302382    1.578478   -0.717000
 ---------------------------------------------------------------------

 SCF Done:  E(RB3LYP) =  -1571.52711110     A.U. after   13 cycles

 The electronic state is 1-A.
 Alpha  occ. eigenvalues --  -88.83720 -19.09652 -14.37178 -14.35671 -14.35407
 Alpha  occ. eigenvalues --  -10.30189 -10.27712 -10.23355 -10.23060 -10.22271
 Alpha  occ. eigenvalues --  -10.21317 -10.19918 -10.18829 -10.18651 -10.18559
 Alpha  occ. eigenvalues --  -10.18430 -10.18346 -10.18199 -10.18024 -10.17942
 Alpha  occ. eigenvalues --  -10.17827 -10.17657 -10.17623 -10.17551 -10.17290
 Alpha  occ. eigenvalues --  -10.16688 -10.16373 -10.16148 -10.16066  -7.89063
 Alpha  occ. eigenvalues --   -5.85540  -5.85007  -5.84686  -1.04421  -1.00388
 Alpha  occ. eigenvalues --   -0.95210  -0.93307  -0.85872  -0.85690  -0.82820
 Alpha  occ. eigenvalues --   -0.80730  -0.78338  -0.76491  -0.75564  -0.74582
 Alpha  occ. eigenvalues --   -0.73381  -0.73194  -0.71045  -0.69089  -0.68789
 Alpha  occ. eigenvalues --   -0.68389  -0.64439  -0.62683  -0.62113  -0.61209
 Alpha  occ. eigenvalues --   -0.60530  -0.59049  -0.57952  -0.56577  -0.55321
 Alpha  occ. eigenvalues --   -0.54485  -0.53545  -0.51474  -0.51293  -0.49467
 Alpha  occ. eigenvalues --   -0.49084  -0.48093  -0.46546  -0.46335  -0.46061
 Alpha  occ. eigenvalues --   -0.45508  -0.44381  -0.44296  -0.43651  -0.43234
 Alpha  occ. eigenvalues --   -0.43067  -0.42923  -0.42430  -0.42127  -0.41740
 Alpha  occ. eigenvalues --   -0.41216  -0.40522  -0.39542  -0.38861  -0.38682
 Alpha  occ. eigenvalues --   -0.38007  -0.37705  -0.37440  -0.37178  -0.36973
 Alpha  occ. eigenvalues --   -0.36834  -0.36575  -0.35757  -0.35627  -0.35464
 Alpha  occ. eigenvalues --   -0.34117  -0.33732  -0.33569  -0.33454  -0.33191
 Alpha  occ. eigenvalues --   -0.32750  -0.30167  -0.26796  -0.26488  -0.25600
 Alpha  occ. eigenvalues --   -0.25403  -0.24964  -0.24088  -0.22989  -0.21874
 Alpha virt. eigenvalues --   -0.03927  -0.02143  -0.01413  -0.01155  -0.00220
 Alpha virt. eigenvalues --    0.00631   0.02373   0.03414   0.04100   0.04844
 Alpha virt. eigenvalues --    0.05276   0.06041   0.06592   0.07188   0.07607

 Mulliken charges:
               1
     1  S   -0.432611
     2  O   -0.443694
     3  N   -0.069900
     4  N   -0.162737
     5  H    0.126848
     6  N   -0.115466
     7  H    0.149442
     8  C   -0.148827
     9  H    0.108878
    10  C   -0.122042
    11  H    0.116326
    12  C   -0.152103
    13  C   -0.155790
    14  H    0.137908
    15  C   -0.162588
    16  H    0.127365
    17  C    0.124621
    18  C    0.154636
    19  C   -0.156545
    20  H    0.099379
    21  H    0.089492
    22  C   -0.190295
    23  H    0.099336
    24  H    0.109658
    25  C   -0.119258
    26  H    0.116841
    27  H    0.107637
    28  C    0.170749
    29  C    0.075331
    30  H    0.133238
    31  C    0.121855
    32  C    0.156090
    33  C   -0.321404
    34  H    0.095812
    35  H    0.093066
    36  H    0.091759
    37  C   -0.324575
    38  H    0.101921
    39  H    0.091715
    40  H    0.084735
    41  C   -0.336986
    42  H    0.095822
    43  H    0.097222
    44  H    0.103816
    45  H    0.119338
    46  C    0.175548
    47  C   -0.193618
    48  C   -0.112097
    49  C   -0.111250
    50  H    0.128201
    51  C   -0.109762
    52  H    0.125741
    53  C   -0.135435
    54  H    0.123613
    55  H    0.122665
    56  H    0.121922
    57  C   -0.328618
    58  H    0.115551
    59  H    0.098297
    60  H    0.093226
 Sum of Mulliken charges =   0.00000

 Dipole moment (field-independent basis, Debye):
    X=              1.8572    Y=              1.0892    Z=             -1.0986  Tot=              2.4172
 Quadrupole moment (field-independent basis, Debye-Ang):
   XX=           -162.5914   YY=           -178.1976   ZZ=           -185.9801
   XY=             -2.9097   XZ=             11.6342   YZ=              3.9490

 Normal termination of Gaussian 09 at Thu Mar 30 03:08:01 2017.
