 Gaussian 09, Revision D.01,
 Gaussian 09:  EM64L-G09RevD.01 24-Apr-2013

 ----------------------------------------------------------------------
 #p b3lyp cc-pVTZ empiricaldispersion=gd3bj scrf=(pcm,solvent=diethylet
 her)
 ----------------------------------------------------------------------

 -----
 title
 -----
 Symbolic Z-matrix:
 Charge =  0 Multiplicity = 1

                         Standard orientation:
 ---------------------------------------------------------------------
 Center     Atomic      Atomic             Coordinates (Angstroms)
 Number     Number       Type             X           Y           Z
 ---------------------------------------------------------------------
      1         16           0       -3.336009   -0.825580    1.098511
      2          8           0        0.892439   -1.608741   -1.401355
      3          7           0        0.813813   -2.261465    0.775072
      4          7           0       -1.820640   -1.160345   -1.095606
      5          1           0       -1.273185   -0.740267   -1.841463
      6          7           0       -2.693649    0.919619   -0.878617
      7          1           0       -2.025403    1.128895   -1.611674
      8          6           0        2.203189   -1.804577    1.079907
      9          6           0        2.221830   -1.861000    2.630299
     10          1           0        1.859672   -0.917168    3.045681
     11          1           0        3.238576   -2.017924    2.998879
     12          6           0        1.264556   -3.004282    2.986079
     13          1           0        0.869149   -2.925037    4.001705
     14          1           0        1.768154   -3.971880    2.899637
     15          6           0        0.151327   -2.887668    1.936896
     16          1           0       -0.671132   -2.256089    2.294150
     17          1           0       -0.265595   -3.860005    1.668350
     18          6           0        0.267375   -2.089122   -0.447921
     19          6           0       -1.228305   -2.405935   -0.615686
     20          1           0       -1.699875   -2.612100    0.342400
     21          6           0       -2.591859   -0.331369   -0.339292
     22          6           0       -1.519802   -3.604495   -1.565557
     23          6           0       -3.033970   -3.870415   -1.534106
     24          1           0       -3.592459   -2.991907   -1.872580
     25          1           0       -3.285126   -4.709724   -2.192535
     26          1           0       -3.373811   -4.115469   -0.521765
     27          6           0       -1.082904   -3.321710   -3.012469
     28          1           0       -0.012174   -3.117356   -3.077073
     29          1           0       -1.314667   -4.189163   -3.640911
     30          1           0       -1.621829   -2.462779   -3.427737
     31          6           0       -0.770611   -4.839538   -1.037256
     32          1           0       -1.088188   -5.094987   -0.019581
     33          1           0       -0.979076   -5.705911   -1.674235
     34          1           0        0.314358   -4.684781   -1.031771
     35          6           0        5.769597    2.563644   -1.560867
     36          6           0        5.361045    1.320968   -1.119849
     37          6           0        4.108844    1.151307   -0.484907
     38          6           0        3.254519    2.268056   -0.294969
     39          6           0        4.927125    3.675970   -1.374768
     40          6           0        3.694999   -0.141742   -0.038792
     41          6           0        1.974911    2.051694    0.362153
     42          6           0        1.598590    0.739623    0.802139
     43          6           0        2.501942   -0.383780    0.577047
     44          6           0        0.339344    0.601168    1.439555
     45          1           0        0.010811   -0.366260    1.778965
     46          6           0       -0.513201    1.670673    1.633229
     47          6           0       -0.136735    2.951630    1.204338
     48          1           0        4.386315   -0.952339   -0.229880
     49          1           0        6.732589    2.684402   -2.048340
     50          1           0        5.997416    0.450233   -1.256367
     51          1           0        5.241529    4.657177   -1.718647
     52          1           0       -1.478208    1.505182    2.101008
     53          1           0       -0.802889    3.795595    1.350745
     54          6           0        3.698733    3.529397   -0.755700
     55          6           0        1.082974    3.127279    0.581516
     56          6           0       -3.425267    2.053926   -0.457366
     57          6           0       -2.857534    3.306571   -0.729576
     58          6           0       -4.689510    1.981675    0.138872
     59          6           0       -3.535375    4.474680   -0.390508
     60          1           0       -1.875274    3.359212   -1.190271
     61          6           0       -5.353422    3.158426    0.484686
     62          1           0       -5.141435    1.018796    0.328802
     63          6           0       -4.785331    4.407171    0.227648
     64          1           0       -3.080051    5.437106   -0.605172
     65          1           0       -6.331916    3.092133    0.951605
     66          1           0       -5.312494    5.316455    0.500111
     67          1           0        3.076684    4.407700   -0.628912
     68          1           0        1.358422    4.123103    0.254971
     69          6           0        3.160454   -2.866247    0.506971
     70          1           0        2.852200   -3.853724    0.860782
     71          1           0        3.122887   -2.865584   -0.584560
     72          1           0        4.190817   -2.702865    0.833930
 ---------------------------------------------------------------------

 SCF Done:  E(RB3LYP) =  -1878.94872738     A.U. after   14 cycles

 The electronic state is 1-A.
 Alpha  occ. eigenvalues --  -88.83573 -19.09808 -14.37220 -14.35962 -14.35586
 Alpha  occ. eigenvalues --  -10.30233 -10.27842 -10.23874 -10.23177 -10.22289
 Alpha  occ. eigenvalues --  -10.21806 -10.19743 -10.19571 -10.19515 -10.19475
 Alpha  occ. eigenvalues --  -10.19273 -10.18927 -10.18508 -10.18457 -10.18439
 Alpha  occ. eigenvalues --  -10.18274 -10.18192 -10.18191 -10.18142 -10.18115
 Alpha  occ. eigenvalues --  -10.18063 -10.18008 -10.17976 -10.17959 -10.17786
 Alpha  occ. eigenvalues --  -10.17638 -10.17620 -10.17553 -10.16852 -10.16696
 Alpha  occ. eigenvalues --  -10.15991 -10.15804  -7.88922  -5.85407  -5.84857
 Alpha  occ. eigenvalues --   -5.84545  -1.04539  -1.00485  -0.95515  -0.93428
 Alpha  occ. eigenvalues --   -0.88625  -0.85712  -0.85176  -0.83068  -0.82291
 Alpha  occ. eigenvalues --   -0.80294  -0.78332  -0.77141  -0.76656  -0.75699
 Alpha  occ. eigenvalues --   -0.75400  -0.73127  -0.72621  -0.71735  -0.71091
 Alpha  occ. eigenvalues --   -0.69244  -0.69023  -0.68566  -0.65043  -0.63465
 Alpha  occ. eigenvalues --   -0.63093  -0.62296  -0.61973  -0.61593  -0.60074
 Alpha  occ. eigenvalues --   -0.58599  -0.58315  -0.56551  -0.55592  -0.54839
 Alpha  occ. eigenvalues --   -0.53887  -0.53452  -0.52029  -0.51434  -0.50434
 Alpha  occ. eigenvalues --   -0.49319  -0.48825  -0.48232  -0.47794  -0.47534
 Alpha  occ. eigenvalues --   -0.46858  -0.45958  -0.45002  -0.44894  -0.44163
 Alpha  occ. eigenvalues --   -0.44058  -0.43781  -0.43287  -0.43021  -0.42607
 Alpha  occ. eigenvalues --   -0.42516  -0.42443  -0.42080  -0.41978  -0.41592
 Alpha  occ. eigenvalues --   -0.40830  -0.40216  -0.39803  -0.39544  -0.38966
 Alpha  occ. eigenvalues --   -0.38470  -0.38273  -0.37688  -0.37393  -0.37067
 Alpha  occ. eigenvalues --   -0.36887  -0.36854  -0.36717  -0.36496  -0.36300
 Alpha  occ. eigenvalues --   -0.35898  -0.35608  -0.35335  -0.34031  -0.33675
 Alpha  occ. eigenvalues --   -0.33395  -0.33351  -0.33055  -0.32262  -0.31517
 Alpha  occ. eigenvalues --   -0.30438  -0.29092  -0.27111  -0.26581  -0.26261
 Alpha  occ. eigenvalues --   -0.25337  -0.23810  -0.23159  -0.22609  -0.21905
 Alpha  occ. eigenvalues --   -0.21656
 Alpha virt. eigenvalues --   -0.05039  -0.04528  -0.03802  -0.01903  -0.00897
 Alpha virt. eigenvalues --   -0.00182   0.01274   0.02027   0.02235   0.03006
 Alpha virt. eigenvalues --    0.04125   0.04596   0.04907   0.05443   0.05893

 Mulliken charges:
               1
     1  S   -0.433088
     2  O   -0.440133
     3  N   -0.064425
     4  N   -0.149337
     5  H    0.133980
     6  N   -0.095545
     7  H    0.144633
     8  C    0.200488
     9  C   -0.163397
    10  H    0.106377
    11  H    0.098730
    12  C   -0.202088
    13  H    0.110169
    14  H    0.097467
    15  C   -0.116556
    16  H    0.107985
    17  H    0.122469
    18  C    0.167439
    19  C    0.067192
    20  H    0.140060
    21  C    0.112951
    22  C    0.170985
    23  C   -0.318062
    24  H    0.097368
    25  H    0.092720
    26  H    0.091260
    27  C   -0.326970
    28  H    0.102459
    29  H    0.090518
    30  H    0.082773
    31  C   -0.340415
    32  H    0.095287
    33  H    0.098065
    34  H    0.103821
    35  C   -0.135539
    36  C   -0.139819
    37  C    0.096528
    38  C    0.036837
    39  C   -0.146215
    40  C   -0.216164
    41  C    0.041443
    42  C    0.138798
    43  C   -0.018721
    44  C   -0.149511
    45  H    0.121443
    46  C   -0.185379
    47  C   -0.161035
    48  H    0.104791
    49  H    0.120411
    50  H    0.106454
    51  H    0.118421
    52  H    0.120576
    53  H    0.130849
    54  C   -0.128981
    55  C   -0.121641
    56  C    0.150218
    57  C   -0.166164
    58  C   -0.126103
    59  C   -0.110078
    60  H    0.117905
    61  C   -0.110459
    62  H    0.124295
    63  C   -0.143561
    64  H    0.122220
    65  H    0.122222
    66  H    0.120638
    67  H    0.111469
    68  H    0.112276
    69  C   -0.356601
    70  H    0.102300
    71  H    0.112158
    72  H    0.098539
 Sum of Mulliken charges =   0.00000

 Dipole moment (field-independent basis, Debye):
    X=              2.5050    Y=             -0.7614    Z=             -0.1625  Tot=              2.6232
 Quadrupole moment (field-independent basis, Debye-Ang):
   XX=           -231.5605   YY=           -200.9726   ZZ=           -228.4089
   XY=             -9.4458   XZ=              5.9995   YZ=            -10.1269

 Normal termination of Gaussian 09 at Thu Mar 30 08:22:12 2017.
