 Gaussian 09, Revision D.01,
 Gaussian 09:  EM64L-G09RevD.01 24-Apr-2013

 ----------------------------------------------------------------------
 #p b3lyp cc-pVTZ empiricaldispersion=gd3bj scrf=(pcm,solvent=diethylet
 her)
 ----------------------------------------------------------------------

 -----
 title
 -----
 Symbolic Z-matrix:
 Charge =  0 Multiplicity = 1

                         Standard orientation:
 ---------------------------------------------------------------------
 Center     Atomic      Atomic             Coordinates (Angstroms)
 Number     Number       Type             X           Y           Z
 ---------------------------------------------------------------------
      1         16           0       -3.310007   -0.289417    1.155853
      2          8           0        0.645439   -1.908105   -1.381214
      3          7           0        0.458063   -2.454326    0.813575
      4          7           0       -1.948528   -0.956871   -1.063807
      5          1           0       -1.365527   -0.664692   -1.842717
      6          7           0       -2.426186    1.252325   -0.894208
      7          1           0       -1.748424    1.322709   -1.644772
      8          6           0        1.885354   -2.184141    1.102649
      9          1           0        2.478337   -2.978680    0.634628
     10          6           0        1.957125   -2.332752    2.637446
     11          1           0        1.743082   -1.370438    3.113095
     12          1           0        2.953134   -2.649731    2.955327
     13          6           0        0.855553   -3.348121    2.958429
     14          1           0        0.529311   -3.317353    4.001058
     15          1           0        1.200500   -4.364593    2.738161
     16          6           0       -0.269318   -2.960645    1.993147
     17          1           0       -0.913704   -2.179478    2.416518
     18          1           0       -0.899029   -3.810568    1.726141
     19          6           0       -0.055807   -2.236356   -0.417493
     20          6           0       -1.585574   -2.281496   -0.567305
     21          1           0       -2.069930   -2.381205    0.401555
     22          6           0       -2.534034    0.018891   -0.316570
     23          6           0       -2.108886   -3.420908   -1.488880
     24          6           0       -3.644522   -3.418645   -1.412284
     25          1           0       -4.051880   -2.456213   -1.738055
     26          1           0       -4.057635   -4.201403   -2.058544
     27          1           0       -3.991801   -3.600968   -0.389126
     28          6           0       -1.670252   -3.233624   -2.950828
     29          1           0       -0.582324   -3.209925   -3.043664
     30          1           0       -2.057783   -4.059165   -3.558540
     31          1           0       -2.071691   -2.303369   -3.368395
     32          6           0       -1.569480   -4.761217   -0.961619
     33          1           0       -1.895037   -4.946721    0.068592
     34          1           0       -1.943877   -5.585742   -1.577846
     35          1           0       -0.474544   -4.795259   -0.989543
     36          6           0        6.277162    1.305685   -1.505833
     37          6           0        5.614352    0.177016   -1.066953
     38          6           0        4.344076    0.273053   -0.453198
     39          6           0        3.733855    1.546401   -0.283373
     40          6           0        5.679578    2.569424   -1.339570
     41          6           0        3.661003   -0.898962   -0.004403
     42          6           0        2.424861    1.612962    0.349414
     43          6           0        1.779976    0.413888    0.792819
     44          6           0        2.437013   -0.864004    0.594481
     45          6           0        0.507257    0.525339    1.405351
     46          1           0       -0.009153   -0.362036    1.736874
     47          6           0       -0.117182    1.745528    1.573635
     48          6           0        0.519044    2.920452    1.143107
     49          1           0        4.150676   -1.857107   -0.162879
     50          1           0        7.252425    1.221415   -1.976279
     51          1           0        6.060246   -0.806981   -1.187752
     52          1           0        6.195681    3.461779   -1.681816
     53          1           0       -1.105075    1.782639    2.020749
     54          1           0        0.031331    3.881788    1.269377
     55          6           0        4.437170    2.684218   -0.742231
     56          6           0        1.762131    2.847294    0.544417
     57          6           0       -2.940552    2.506694   -0.490397
     58          6           0       -2.154523    3.632914   -0.768883
     59          6           0       -4.200691    2.667827    0.096632
     60          6           0       -2.613921    4.907333   -0.445527
     61          1           0       -1.175893    3.501996   -1.221402
     62          6           0       -4.644702    3.947732    0.427438
     63          1           0       -4.819235    1.803186    0.291096
     64          6           0       -3.859445    5.071197    0.163314
     65          1           0       -1.992046    5.770396   -0.664817
     66          1           0       -5.621922    4.063511    0.887248
     67          1           0       -4.216385    6.063189    0.423168
     68          1           0        4.006768    3.672575   -0.629664
     69          1           0        2.234831    3.766217    0.217768
 ---------------------------------------------------------------------

 SCF Done:  E(RB3LYP) =  -1839.61768602     A.U. after   14 cycles

 The electronic state is 1-A.
 Alpha  occ. eigenvalues --  -88.83574 -19.09915 -14.37187 -14.36049 -14.35708
 Alpha  occ. eigenvalues --  -10.30262 -10.27897 -10.23150 -10.22738 -10.22363
 Alpha  occ. eigenvalues --  -10.21825 -10.19781 -10.19539 -10.19475 -10.19377
 Alpha  occ. eigenvalues --  -10.19357 -10.19050 -10.18515 -10.18513 -10.18448
 Alpha  occ. eigenvalues --  -10.18361 -10.18290 -10.18216 -10.18171 -10.18137
 Alpha  occ. eigenvalues --  -10.18092 -10.18064 -10.18057 -10.17987 -10.17887
 Alpha  occ. eigenvalues --  -10.17831 -10.17725 -10.17621 -10.16720 -10.16038
 Alpha  occ. eigenvalues --  -10.15860  -7.88922  -5.85407  -5.84856  -5.84546
 Alpha  occ. eigenvalues --   -1.04599  -1.00499  -0.95463  -0.93463  -0.88699
 Alpha  occ. eigenvalues --   -0.85728  -0.85225  -0.82897  -0.82190  -0.80238
 Alpha  occ. eigenvalues --   -0.78224  -0.76775  -0.76520  -0.75463  -0.74960
 Alpha  occ. eigenvalues --   -0.73143  -0.72665  -0.71619  -0.71026  -0.69089
 Alpha  occ. eigenvalues --   -0.68625  -0.65603  -0.63507  -0.63106  -0.62545
 Alpha  occ. eigenvalues --   -0.62096  -0.61690  -0.60376  -0.58652  -0.58370
 Alpha  occ. eigenvalues --   -0.56614  -0.56457  -0.54918  -0.53963  -0.53894
 Alpha  occ. eigenvalues --   -0.52304  -0.51514  -0.50752  -0.49307  -0.48844
 Alpha  occ. eigenvalues --   -0.48524  -0.47785  -0.47576  -0.46861  -0.46010
 Alpha  occ. eigenvalues --   -0.44976  -0.44272  -0.44197  -0.43891  -0.43485
 Alpha  occ. eigenvalues --   -0.43128  -0.43037  -0.42682  -0.42497  -0.42174
 Alpha  occ. eigenvalues --   -0.42030  -0.41749  -0.41367  -0.40875  -0.40132
 Alpha  occ. eigenvalues --   -0.39874  -0.38815  -0.38566  -0.37799  -0.37650
 Alpha  occ. eigenvalues --   -0.37434  -0.36959  -0.36921  -0.36745  -0.36601
 Alpha  occ. eigenvalues --   -0.36420  -0.36246  -0.36130  -0.35414  -0.34579
 Alpha  occ. eigenvalues --   -0.33884  -0.33591  -0.33431  -0.33092  -0.32562
 Alpha  occ. eigenvalues --   -0.31558  -0.30448  -0.29149  -0.27162  -0.26683
 Alpha  occ. eigenvalues --   -0.26315  -0.25456  -0.23858  -0.23222  -0.22635
 Alpha  occ. eigenvalues --   -0.21907  -0.21670
 Alpha virt. eigenvalues --   -0.05106  -0.04580  -0.03811  -0.01893  -0.00952
 Alpha virt. eigenvalues --   -0.00328   0.01168   0.01991   0.02284   0.03064
 Alpha virt. eigenvalues --    0.04095   0.04615   0.04888   0.05425   0.06036

 Mulliken charges:
               1
     1  S   -0.433356
     2  O   -0.428637
     3  N   -0.042459
     4  N   -0.147491
     5  H    0.134655
     6  N   -0.097653
     7  H    0.145139
     8  C   -0.020403
     9  H    0.104144
    10  C   -0.160784
    11  H    0.103853
    12  H    0.105534
    13  C   -0.186888
    14  H    0.109708
    15  H    0.094499
    16  C   -0.115574
    17  H    0.105968
    18  H    0.119962
    19  C    0.156987
    20  C    0.055497
    21  H    0.142227
    22  C    0.111198
    23  C    0.168525
    24  C   -0.316407
    25  H    0.097562
    26  H    0.092948
    27  H    0.091022
    28  C   -0.325994
    29  H    0.101924
    30  H    0.090847
    31  H    0.082678
    32  C   -0.334640
    33  H    0.096177
    34  H    0.098278
    35  H    0.098660
    36  C   -0.136735
    37  C   -0.141463
    38  C    0.102277
    39  C    0.035977
    40  C   -0.146459
    41  C   -0.233081
    42  C    0.040729
    43  C    0.129289
    44  C    0.045408
    45  C   -0.153363
    46  H    0.127280
    47  C   -0.174602
    48  C   -0.164730
    49  H    0.089472
    50  H    0.120363
    51  H    0.108619
    52  H    0.118721
    53  H    0.123536
    54  H    0.129916
    55  C   -0.128365
    56  C   -0.119141
    57  C    0.148690
    58  C   -0.164651
    59  C   -0.124557
    60  C   -0.110918
    61  H    0.119657
    62  C   -0.110524
    63  H    0.124238
    64  C   -0.143086
    65  H    0.122342
    66  H    0.122238
    67  H    0.120807
    68  H    0.112100
    69  H    0.112310
 Sum of Mulliken charges =   0.00000

 Dipole moment (field-independent basis, Debye):
    X=              2.0812    Y=             -1.0204    Z=             -0.1922  Tot=              2.3258
 Quadrupole moment (field-independent basis, Debye-Ang):
   XX=           -225.8069   YY=           -192.1203   ZZ=           -221.7847
   XY=             -2.7962   XZ=              4.8811   YZ=            -11.4415

 Normal termination of Gaussian 09 at Thu Mar 30 05:41:42 2017.
