 Gaussian 09, Revision D.01,
 Gaussian 09:  EM64L-G09RevD.01 24-Apr-2013

 ----------------------------------------------------------------------
 #p b3lyp cc-pVTZ empiricaldispersion=gd3bj scrf=(pcm,solvent=diethylet
 her)
 ----------------------------------------------------------------------

 -----
 title
 -----
 Symbolic Z-matrix:
 Charge =  0 Multiplicity = 1

                         Standard orientation:
 ---------------------------------------------------------------------
 Center     Atomic      Atomic             Coordinates (Angstroms)
 Number     Number       Type             X           Y           Z
 ---------------------------------------------------------------------
      1         16           0        1.521346    1.103578   -0.590382
      2          8           0       -0.358726   -3.512351    0.874923
      3          7           0       -1.317587   -1.561800    1.494440
      4          7           0        1.404509   -1.575531   -0.432494
      5          1           0        1.840827   -2.464871   -0.215905
      6          7           0        3.455571   -0.701144   -0.011861
      7          1           0        3.662227   -1.635971    0.321482
      8          6           0       -1.476146   -0.094042    1.456809
      9          1           0       -0.547321    0.354475    1.101814
     10          6           0       -1.701188    0.242933    2.950006
     11          1           0       -2.237916    1.185270    3.078793
     12          1           0       -0.729628    0.327303    3.450188
     13          6           0       -2.468470   -0.977311    3.474769
     14          1           0       -3.521364   -0.912078    3.181290
     15          1           0       -2.425631   -1.076082    4.562303
     16          6           0       -1.789665   -2.150261    2.759979
     17          1           0       -2.459299   -2.991715    2.561085
     18          1           0       -0.931807   -2.537274    3.322490
     19          6           0       -0.601333   -2.323276    0.634277
     20          6           0       -0.040775   -1.648555   -0.628809
     21          1           0       -0.392276   -0.622722   -0.709446
     22          6           0        2.151678   -0.448090   -0.339396
     23          6           0       -0.411565   -2.367186   -1.962728
     24          6           0        0.016330   -1.443330   -3.116289
     25          1           0        1.092764   -1.245439   -3.086157
     26          1           0       -0.216479   -1.911662   -4.079494
     27          1           0       -0.503132   -0.480361   -3.067450
     28          6           0        0.291294   -3.726421   -2.118422
     29          1           0        0.039995   -4.399997   -1.297138
     30          1           0       -0.016553   -4.189191   -3.062930
     31          1           0        1.380968   -3.610394   -2.155355
     32          6           0       -1.934299   -2.567645   -2.010508
     33          1           0       -2.465894   -1.617073   -1.904326
     34          1           0       -2.220976   -3.010280   -2.970998
     35          1           0       -2.273891   -3.241856   -1.216998
     36          6           0       -2.630884    0.363633    0.581478
     37          6           0       -2.683830    1.725598    0.138695
     38          6           0       -3.650092   -0.500310    0.239929
     39          6           0       -1.682641    2.684258    0.458791
     40          6           0       -3.794868    2.150310   -0.663970
     41          6           0       -4.747778   -0.076606   -0.545509
     42          1           0       -3.599714   -1.534281    0.563330
     43          6           0       -1.768745    3.981894    0.004636
     44          1           0       -0.829779    2.393629    1.059741
     45          6           0       -3.851950    3.495179   -1.116034
     46          6           0       -4.817451    1.220787   -0.991434
     47          1           0       -5.529333   -0.787686   -0.796772
     48          6           0       -2.862577    4.394450   -0.791156
     49          1           0       -0.987885    4.693204    0.257210
     50          1           0       -4.697839    3.801234   -1.726403
     51          1           0       -5.653197    1.555761   -1.600173
     52          1           0       -2.917349    5.420153   -1.144227
     53          6           0        4.534326    0.211604    0.110246
     54          6           0        5.398340    0.060975    1.200337
     55          6           0        4.793259    1.189597   -0.856178
     56          6           0        6.511456    0.890636    1.330067
     57          1           0        5.190670   -0.700997    1.946924
     58          6           0        5.898447    2.025350   -0.708630
     59          1           0        4.134155    1.289510   -1.708396
     60          6           0        6.761653    1.881738    0.380191
     61          1           0        7.175937    0.765152    2.179882
     62          1           0        6.091643    2.785992   -1.459442
     63          1           0        7.623757    2.533681    0.484329
 ---------------------------------------------------------------------

 SCF Done:  E(RB3LYP) =  -1685.90373668     A.U. after   13 cycles

 The electronic state is 1-A.
 Alpha  occ. eigenvalues --  -88.83449 -19.09837 -14.37024 -14.36414 -14.35452
 Alpha  occ. eigenvalues --  -10.30334 -10.27852 -10.23111 -10.22470 -10.22441
 Alpha  occ. eigenvalues --  -10.21051 -10.19487 -10.19359 -10.19221 -10.19204
 Alpha  occ. eigenvalues --  -10.18670 -10.18555 -10.18397 -10.18322 -10.18264
 Alpha  occ. eigenvalues --  -10.18225 -10.18169 -10.18146 -10.18142 -10.18103
 Alpha  occ. eigenvalues --  -10.18068 -10.18064 -10.18056 -10.18004 -10.15943
 Alpha  occ. eigenvalues --  -10.15759 -10.15646  -7.88794  -5.85285  -5.84723
 Alpha  occ. eigenvalues --   -5.84416  -1.04403  -1.00545  -0.95295  -0.93534
 Alpha  occ. eigenvalues --   -0.87971  -0.85788  -0.82773  -0.82456  -0.80454
 Alpha  occ. eigenvalues --   -0.78810  -0.76620  -0.75536  -0.74753  -0.74480
 Alpha  occ. eigenvalues --   -0.73194  -0.71992  -0.70875  -0.68609  -0.68360
 Alpha  occ. eigenvalues --   -0.65356  -0.63137  -0.62494  -0.62142  -0.62070
 Alpha  occ. eigenvalues --   -0.60551  -0.59115  -0.58591  -0.56972  -0.55954
 Alpha  occ. eigenvalues --   -0.54747  -0.53591  -0.52515  -0.51469  -0.51029
 Alpha  occ. eigenvalues --   -0.50084  -0.49276  -0.48830  -0.48106  -0.46642
 Alpha  occ. eigenvalues --   -0.46246  -0.45728  -0.44634  -0.44247  -0.44171
 Alpha  occ. eigenvalues --   -0.43574  -0.43137  -0.42972  -0.42525  -0.42184
 Alpha  occ. eigenvalues --   -0.41939  -0.41648  -0.41105  -0.40444  -0.39976
 Alpha  occ. eigenvalues --   -0.39447  -0.38772  -0.38426  -0.38026  -0.37404
 Alpha  occ. eigenvalues --   -0.37254  -0.36886  -0.36869  -0.36418  -0.36194
 Alpha  occ. eigenvalues --   -0.35876  -0.35587  -0.34803  -0.34257  -0.33703
 Alpha  occ. eigenvalues --   -0.33528  -0.33080  -0.32843  -0.32604  -0.30083
 Alpha  occ. eigenvalues --   -0.28740  -0.26744  -0.26457  -0.25518  -0.25230
 Alpha  occ. eigenvalues --   -0.23953  -0.22835  -0.22444  -0.21459
 Alpha virt. eigenvalues --   -0.05230  -0.03616  -0.02395  -0.01924  -0.00249
 Alpha virt. eigenvalues --    0.00802   0.01546   0.02050   0.03475   0.04587
 Alpha virt. eigenvalues --    0.04813   0.05064   0.05236   0.06777   0.06857

 Mulliken charges:
               1
     1  S   -0.434661
     2  O   -0.431251
     3  N   -0.081313
     4  N   -0.161282
     5  H    0.143980
     6  N   -0.135956
     7  H    0.146209
     8  C   -0.036706
     9  H    0.144555
    10  C   -0.152620
    11  H    0.104685
    12  H    0.095571
    13  C   -0.181588
    14  H    0.095392
    15  H    0.107208
    16  C   -0.112982
    17  H    0.106238
    18  H    0.100968
    19  C    0.183172
    20  C    0.036909
    21  H    0.153943
    22  C    0.132084
    23  C    0.171876
    24  C   -0.315652
    25  H    0.097578
    26  H    0.091951
    27  H    0.097612
    28  C   -0.332780
    29  H    0.103927
    30  H    0.090071
    31  H    0.078213
    32  C   -0.338135
    33  H    0.112412
    34  H    0.092478
    35  H    0.092401
    36  C    0.066735
    37  C    0.057996
    38  C   -0.209353
    39  C   -0.104744
    40  C    0.095253
    41  C   -0.140112
    42  H    0.127822
    43  C   -0.153075
    44  H    0.114073
    45  C   -0.128328
    46  C   -0.156622
    47  H    0.118962
    48  C   -0.140919
    49  H    0.120084
    50  H    0.110151
    51  H    0.111864
    52  H    0.120209
    53  C    0.161704
    54  C   -0.167741
    55  C   -0.109056
    56  C   -0.116369
    57  H    0.112330
    58  C   -0.115145
    59  H    0.128049
    60  C   -0.134584
    61  H    0.122125
    62  H    0.122768
    63  H    0.121416
 Sum of Mulliken charges =   0.00000

 Dipole moment (field-independent basis, Debye):
    X=              0.3719    Y=             -0.7710    Z=              1.9715  Tot=              2.1493
 Quadrupole moment (field-independent basis, Debye-Ang):
   XX=           -175.2960   YY=           -203.7755   ZZ=           -190.3789
   XY=             -5.0864   XZ=              6.3864   YZ=             -1.1051

 Normal termination of Gaussian 09 at Thu Mar 30 02:17:48 2017.
