 Gaussian 09, Revision D.01,
 Gaussian 09:  EM64L-G09RevD.01 24-Apr-2013

 ----------------------------------------------------------------------
 #p b3lyp cc-pVTZ empiricaldispersion=gd3bj scrf=(pcm,solvent=diethylet
 her)
 ----------------------------------------------------------------------

 -----
 title
 -----
 Symbolic Z-matrix:
 Charge =  0 Multiplicity = 1

                         Standard orientation:
 ---------------------------------------------------------------------
 Center     Atomic      Atomic             Coordinates (Angstroms)
 Number     Number       Type             X           Y           Z
 ---------------------------------------------------------------------
      1         16           0       -0.700305   -1.608930    1.776605
      2          8           0        1.771380    0.282433   -1.755409
      3          7           0        2.243537    0.903574    0.368921
      4          7           0        0.469947   -1.861856   -0.636739
      5          1           0        0.396328   -1.671711   -1.632809
      6          7           0       -1.766174   -1.443178   -0.702177
      7          1           0       -1.579729   -1.235606   -1.676949
      8          6           0        0.450664    3.864353   -1.056653
      9          1           0        1.285786    4.402769   -1.499267
     10          6           0       -0.855446    4.289160   -1.300632
     11          1           0       -1.031501    5.157753   -1.929371
     12          6           0       -1.933265    3.593349   -0.747646
     13          6           0       -1.692249    2.474558    0.051271
     14          1           0       -2.519902    1.918134    0.480608
     15          6           0       -0.383973    2.053324    0.294550
     16          1           0       -0.218214    1.169998    0.902980
     17          6           0        0.700981    2.743100   -0.257687
     18          6           0        2.141492    2.330361    0.013811
     19          1           0        2.734198    2.520773   -0.884217
     20          6           0        2.749000    3.024008    1.250492
     21          1           0        2.379583    4.045297    1.368087
     22          1           0        3.839572    3.061316    1.147261
     23          6           0        2.354606    2.095754    2.406367
     24          1           0        1.311103    2.268678    2.688551
     25          1           0        2.973195    2.229160    3.297331
     26          6           0        2.505870    0.691394    1.805958
     27          1           0        1.794736   -0.018711    2.234265
     28          1           0        3.521661    0.304064    1.947804
     29          6           0        1.975018   -0.026183   -0.573629
     30          6           0        1.796590   -1.490234   -0.137299
     31          1           0        1.749676   -1.572967    0.945541
     32          6           0       -0.669184   -1.634975    0.085735
     33          6           0        2.906734   -2.452856   -0.639586
     34          6           0        2.655283   -3.831409   -0.007258
     35          1           0        1.667137   -4.212350   -0.283978
     36          1           0        3.408827   -4.550201   -0.348451
     37          1           0        2.704226   -3.780398    1.086586
     38          6           0        2.918425   -2.585918   -2.171841
     39          1           0        3.039766   -1.615309   -2.657798
     40          1           0        3.744045   -3.238339   -2.477629
     41          1           0        1.991692   -3.041851   -2.539070
     42          6           0        4.262310   -1.904370   -0.162188
     43          1           0        4.284108   -1.791516    0.928125
     44          1           0        5.067306   -2.592367   -0.441919
     45          1           0        4.484418   -0.930425   -0.612616
     46          1           0       -2.951632    3.918770   -0.941313
     47          6           0       -3.111550   -1.216844   -0.313918
     48          6           0       -3.812363   -0.196529   -0.966893
     49          6           0       -3.757542   -2.012475    0.637421
     50          6           0       -5.152248    0.036407   -0.659724
     51          1           0       -3.301045    0.421752   -1.699186
     52          6           0       -5.093281   -1.762370    0.947206
     53          1           0       -3.217109   -2.812972    1.125175
     54          6           0       -5.796094   -0.740970    0.303918
     55          1           0       -5.687188    0.831842   -1.170123
     56          1           0       -5.589475   -2.379861    1.690162
     57          1           0       -6.837557   -0.555898    0.549117
 ---------------------------------------------------------------------

 SCF Done:  E(RB3LYP) =  -1532.19482994     A.U. after   13 cycles

 The electronic state is 1-A.
 Alpha  occ. eigenvalues --  -88.83757 -19.09794 -14.37252 -14.35862 -14.35523
 Alpha  occ. eigenvalues --  -10.30279 -10.27765 -10.23117 -10.22375 -10.22218
 Alpha  occ. eigenvalues --  -10.21473 -10.19897 -10.18792 -10.18664 -10.18571
 Alpha  occ. eigenvalues --  -10.18439 -10.18343 -10.18243 -10.18195 -10.18155
 Alpha  occ. eigenvalues --  -10.17982 -10.17807 -10.17763 -10.17700 -10.17433
 Alpha  occ. eigenvalues --  -10.16709 -10.16148 -10.16030  -7.89101  -5.85579
 Alpha  occ. eigenvalues --   -5.85044  -5.84724  -1.04527  -1.00481  -0.95294
 Alpha  occ. eigenvalues --   -0.93414  -0.85896  -0.85754  -0.82822  -0.80339
 Alpha  occ. eigenvalues --   -0.77497  -0.76557  -0.75580  -0.74672  -0.73240
 Alpha  occ. eigenvalues --   -0.72458  -0.71019  -0.69111  -0.68767  -0.65326
 Alpha  occ. eigenvalues --   -0.62909  -0.62197  -0.61250  -0.60848  -0.59175
 Alpha  occ. eigenvalues --   -0.58068  -0.56686  -0.55727  -0.54851  -0.53959
 Alpha  occ. eigenvalues --   -0.52417  -0.51249  -0.49441  -0.49097  -0.48195
 Alpha  occ. eigenvalues --   -0.46738  -0.46398  -0.46284  -0.45846  -0.44511
 Alpha  occ. eigenvalues --   -0.44301  -0.43360  -0.43060  -0.42951  -0.42762
 Alpha  occ. eigenvalues --   -0.42092  -0.42042  -0.41372  -0.41051  -0.40035
 Alpha  occ. eigenvalues --   -0.38914  -0.38717  -0.38036  -0.37811  -0.37478
 Alpha  occ. eigenvalues --   -0.37152  -0.36915  -0.36737  -0.36030  -0.35891
 Alpha  occ. eigenvalues --   -0.35569  -0.35171  -0.34323  -0.33810  -0.33536
 Alpha  occ. eigenvalues --   -0.33289  -0.32967  -0.30308  -0.26875  -0.26537
 Alpha  occ. eigenvalues --   -0.25676  -0.25603  -0.25010  -0.24143  -0.22981
 Alpha  occ. eigenvalues --   -0.21919
 Alpha virt. eigenvalues --   -0.04007  -0.02222  -0.01574  -0.01282  -0.00316
 Alpha virt. eigenvalues --    0.00705   0.02406   0.03501   0.04079   0.04813
 Alpha virt. eigenvalues --    0.05506   0.06145   0.06751   0.07180   0.07699

 Mulliken charges:
               1
     1  S   -0.432118
     2  O   -0.436649
     3  N   -0.047018
     4  N   -0.158860
     5  H    0.128389
     6  N   -0.113067
     7  H    0.149357
     8  C   -0.149349
     9  H    0.106517
    10  C   -0.120068
    11  H    0.117829
    12  C   -0.146191
    13  C   -0.150336
    14  H    0.137685
    15  C   -0.159217
    16  H    0.131553
    17  C    0.119738
    18  C   -0.014921
    19  H    0.103776
    20  C   -0.159840
    21  H    0.100122
    22  H    0.095184
    23  C   -0.179762
    24  H    0.099484
    25  H    0.109030
    26  C   -0.124820
    27  H    0.116981
    28  H    0.109131
    29  C    0.165425
    30  C    0.064942
    31  H    0.133726
    32  C    0.120761
    33  C    0.157557
    34  C   -0.320029
    35  H    0.096227
    36  H    0.093260
    37  H    0.091482
    38  C   -0.325094
    39  H    0.101317
    40  H    0.091306
    41  H    0.084205
    42  C   -0.331457
    43  H    0.096048
    44  H    0.097822
    45  H    0.097436
    46  H    0.120184
    47  C    0.175486
    48  C   -0.192923
    49  C   -0.114444
    50  C   -0.110790
    51  H    0.126528
    52  C   -0.109941
    53  H    0.126367
    54  C   -0.136163
    55  H    0.123551
    56  H    0.122804
    57  H    0.121850
 Sum of Mulliken charges =   0.00000

 Dipole moment (field-independent basis, Debye):
    X=              1.4194    Y=              1.3598    Z=             -1.0103  Tot=              2.2101
 Quadrupole moment (field-independent basis, Debye-Ang):
   XX=           -155.0402   YY=           -171.5548   ZZ=           -180.0796
   XY=             -0.4206   XZ=             11.1765   YZ=              4.9307

 Normal termination of Gaussian 09 at Thu Mar 30 03:57:54 2017.
