 Gaussian 09, Revision D.01,
 Gaussian 09:  EM64L-G09RevD.01 24-Apr-2013

 ----------------------------------------------------------------------
 #p b3lyp cc-pVTZ empiricaldispersion=gd3bj scrf=(pcm,solvent=diethylet
 her)
 ----------------------------------------------------------------------

 -----
 title
 -----
 Symbolic Z-matrix:
 Charge =  0 Multiplicity = 1

                         Standard orientation:
 ---------------------------------------------------------------------
 Center     Atomic      Atomic             Coordinates (Angstroms)
 Number     Number       Type             X           Y           Z
 ---------------------------------------------------------------------
      1         16           0        2.544455    0.285754    1.791786
      2          8           0       -0.357411    1.426933   -1.637755
      3          7           0       -1.140371    1.708990    0.486849
      4          7           0        2.154074    1.418529   -0.624649
      5          1           0        1.948561    1.211266   -1.598654
      6          7           0        3.201406   -0.594949   -0.679439
      7          1           0        3.363874   -0.334774   -1.646029
      8          6           0       -2.480389    1.102160    0.216057
      9          6           0       -3.230830    1.465988    1.524418
     10          1           0       -4.070315    0.798125    1.718784
     11          1           0       -3.617650    2.488895    1.438690
     12          6           0       -2.150728    1.395134    2.601954
     13          1           0       -1.936195    0.351000    2.851284
     14          1           0       -2.422650    1.918185    3.522145
     15          6           0       -0.939834    2.029329    1.917184
     16          1           0        0.004129    1.616559    2.278922
     17          1           0       -0.930071    3.115731    2.059546
     18          6           0       -0.193371    1.815104   -0.474090
     19          6           0        1.188742    2.379436   -0.090993
     20          1           0        1.332836    2.394143    0.985645
     21          6           0        2.624545    0.362415    0.104337
     22          6           0        1.447502    3.818309   -0.627063
     23          6           0        2.809058    4.281988   -0.083326
     24          1           0        3.610700    3.614689   -0.414771
     25          1           0        3.035010    5.293748   -0.438369
     26          1           0        2.812300    4.297081    1.012632
     27          6           0        1.461790    3.876563   -2.163720
     28          1           0        0.521524    3.518702   -2.589335
     29          1           0        1.623041    4.910317   -2.489618
     30          1           0        2.277019    3.273350   -2.579342
     31          6           0        0.342200    4.744581   -0.091846
     32          1           0        0.318749    4.744673    1.003872
     33          1           0        0.524514    5.773503   -0.420005
     34          1           0       -0.647916    4.448857   -0.456010
     35          6           0       -2.355140   -0.432513    0.067089
     36          6           0       -3.497004   -1.269001   -0.207079
     37          6           0       -1.123151   -1.040478    0.220631
     38          6           0       -4.840932   -0.801379   -0.289743
     39          6           0       -3.293806   -2.683608   -0.384329
     40          6           0       -0.932409   -2.430303    0.057386
     41          1           0       -0.258034   -0.445212    0.477910
     42          6           0       -5.894202   -1.648122   -0.556597
     43          1           0       -5.061069    0.242438   -0.124495
     44          6           0       -4.399594   -3.528215   -0.670485
     45          6           0       -1.994273   -3.237677   -0.257733
     46          1           0        0.065224   -2.844285    0.171292
     47          6           0       -5.676716   -3.028540   -0.761056
     48          1           0       -6.902538   -1.247179   -0.606325
     49          1           0       -4.211090   -4.589879   -0.808832
     50          1           0       -1.864072   -4.307070   -0.401161
     51          1           0       -6.513209   -3.686663   -0.977039
     52          6           0        3.747713   -1.852402   -0.320078
     53          6           0        4.900414   -2.273779   -0.992694
     54          6           0        3.132188   -2.702617    0.606318
     55          6           0        5.440314   -3.533075   -0.736021
     56          1           0        5.374231   -1.610942   -1.711962
     57          6           0        3.687579   -3.954282    0.865202
     58          1           0        2.236603   -2.381289    1.120319
     59          6           0        4.840184   -4.376896    0.199284
     60          1           0        6.335450   -3.848137   -1.264043
     61          1           0        3.206199   -4.606687    1.587862
     62          1           0        5.263762   -5.355203    0.405201
     63          6           0       -3.115085    1.788795   -1.011569
     64          1           0       -2.713210    1.390946   -1.941296
     65          1           0       -4.199505    1.678525   -1.014895
     66          1           0       -2.892540    2.859567   -0.966405
 ---------------------------------------------------------------------

 SCF Done:  E(RB3LYP) =  -1725.22886179     A.U. after   13 cycles

 The electronic state is 1-A.
 Alpha  occ. eigenvalues --  -88.83837 -19.09684 -14.37244 -14.35707 -14.35448
 Alpha  occ. eigenvalues --  -10.30308 -10.27776 -10.23812 -10.23263 -10.22281
 Alpha  occ. eigenvalues --  -10.21166 -10.19933 -10.19616 -10.19388 -10.19135
 Alpha  occ. eigenvalues --  -10.18711 -10.18591 -10.18464 -10.18325 -10.18173
 Alpha  occ. eigenvalues --  -10.18159 -10.18152 -10.18088 -10.18061 -10.18045
 Alpha  occ. eigenvalues --  -10.17935 -10.17888 -10.17805 -10.17583 -10.16711
 Alpha  occ. eigenvalues --  -10.16314 -10.16179 -10.16033  -7.89184  -5.85661
 Alpha  occ. eigenvalues --   -5.85131  -5.84802  -1.04451  -1.00436  -0.95293
 Alpha  occ. eigenvalues --   -0.93367  -0.87812  -0.85852  -0.83018  -0.82535
 Alpha  occ. eigenvalues --   -0.80972  -0.78795  -0.76675  -0.75921  -0.75572
 Alpha  occ. eigenvalues --   -0.74421  -0.73249  -0.72218  -0.71052  -0.69124
 Alpha  occ. eigenvalues --   -0.68796  -0.68262  -0.64608  -0.63090  -0.62521
 Alpha  occ. eigenvalues --   -0.62120  -0.61879  -0.60241  -0.59555  -0.58071
 Alpha  occ. eigenvalues --   -0.56648  -0.55300  -0.54403  -0.53236  -0.51846
 Alpha  occ. eigenvalues --   -0.51422  -0.50544  -0.50286  -0.49517  -0.48956
 Alpha  occ. eigenvalues --   -0.47833  -0.46934  -0.45949  -0.45669  -0.44945
 Alpha  occ. eigenvalues --   -0.44564  -0.44320  -0.43364  -0.43291  -0.43110
 Alpha  occ. eigenvalues --   -0.42802  -0.42543  -0.42212  -0.41846  -0.41574
 Alpha  occ. eigenvalues --   -0.40602  -0.40280  -0.40092  -0.39188  -0.38672
 Alpha  occ. eigenvalues --   -0.38516  -0.38293  -0.37923  -0.37391  -0.37315
 Alpha  occ. eigenvalues --   -0.36960  -0.36747  -0.36709  -0.35734  -0.35524
 Alpha  occ. eigenvalues --   -0.34754  -0.34388  -0.34155  -0.33726  -0.33464
 Alpha  occ. eigenvalues --   -0.33048  -0.33019  -0.32430  -0.30159  -0.28683
 Alpha  occ. eigenvalues --   -0.26626  -0.26383  -0.25621  -0.25053  -0.24387
 Alpha  occ. eigenvalues --   -0.22946  -0.22173  -0.21884
 Alpha virt. eigenvalues --   -0.05081  -0.04016  -0.02209  -0.02010  -0.00106
 Alpha virt. eigenvalues --    0.00403   0.01377   0.02186   0.03338   0.04283
 Alpha virt. eigenvalues --    0.04736   0.05070   0.05534   0.06225   0.06664

 Mulliken charges:
               1
     1  S   -0.424733
     2  O   -0.441657
     3  N   -0.086390
     4  N   -0.168901
     5  H    0.130450
     6  N   -0.117515
     7  H    0.149152
     8  C    0.159608
     9  C   -0.169127
    10  H    0.107187
    11  H    0.086959
    12  C   -0.181696
    13  H    0.095637
    14  H    0.109395
    15  C   -0.124810
    16  H    0.119763
    17  H    0.111158
    18  C    0.170626
    19  C    0.072093
    20  H    0.133093
    21  C    0.124080
    22  C    0.162760
    23  C   -0.323132
    24  H    0.095909
    25  H    0.093660
    26  H    0.092390
    27  C   -0.325021
    28  H    0.102283
    29  H    0.091723
    30  H    0.082698
    31  C   -0.339353
    32  H    0.095854
    33  H    0.097852
    34  H    0.104917
    35  C    0.042867
    36  C    0.061549
    37  C   -0.127691
    38  C   -0.110433
    39  C    0.104292
    40  C   -0.161439
    41  H    0.113430
    42  C   -0.183144
    43  H    0.113469
    44  C   -0.131683
    45  C   -0.173896
    46  H    0.123968
    47  C   -0.139896
    48  H    0.117182
    49  H    0.110026
    50  H    0.109975
    51  H    0.120440
    52  C    0.166078
    53  C   -0.165775
    54  C   -0.115922
    55  C   -0.112733
    56  H    0.110755
    57  C   -0.119418
    58  H    0.132134
    59  C   -0.136273
    60  H    0.122418
    61  H    0.123286
    62  H    0.121437
    63  C   -0.314737
    64  H    0.115016
    65  H    0.100847
    66  H    0.096955
 Sum of Mulliken charges =   0.00000

 Dipole moment (field-independent basis, Debye):
    X=             -1.1754    Y=              1.1714    Z=             -1.2190  Tot=              2.0591
 Quadrupole moment (field-independent basis, Debye-Ang):
   XX=           -190.5046   YY=           -185.0631   ZZ=           -211.5820
   XY=             -7.0504   XZ=            -20.8385   YZ=              4.0626

 Normal termination of Gaussian 09 at Thu Mar 30 03:53:01 2017.
