 Gaussian 09, Revision D.01,
 Gaussian 09:  EM64L-G09RevD.01 24-Apr-2013

 ----------------------------------------------------------------------
 #p b3lyp cc-pVTZ empiricaldispersion=gd3bj scrf=(pcm,solvent=diethylet
 her)
 ----------------------------------------------------------------------

 -----
 title
 -----
 Symbolic Z-matrix:
 Charge =  0 Multiplicity = 1

                         Standard orientation:
 ---------------------------------------------------------------------
 Center     Atomic      Atomic             Coordinates (Angstroms)
 Number     Number       Type             X           Y           Z
 ---------------------------------------------------------------------
      1         16           0       -2.309544    1.398174   -0.249944
      2          8           0       -0.553139   -3.341914    1.318028
      3          7           0        0.482888   -2.608001   -0.547114
      4          7           0       -2.042179   -0.959196    1.016002
      5          1           0       -2.456430   -1.775684    1.452747
      6          7           0       -4.184142   -0.378148    0.567475
      7          1           0       -4.372330   -1.346778    0.799863
      8          6           0        0.757946   -1.659192   -1.679964
      9          6           0        1.550994   -2.556499   -2.672386
     10          1           0        2.621686   -2.508143   -2.468748
     11          1           0        1.398571   -2.205941   -3.696087
     12          6           0        1.014269   -3.973051   -2.435206
     13          1           0        1.730104   -4.745527   -2.727928
     14          1           0        0.097901   -4.139079   -3.009875
     15          6           0        0.711671   -4.015359   -0.934010
     16          1           0        1.548693   -4.422319   -0.353074
     17          1           0       -0.168204   -4.610717   -0.683717
     18          6           0       -0.195874   -2.389716    0.608996
     19          6           0       -0.580433   -0.966289    1.051965
     20          1           0       -0.238512   -0.213047    0.348818
     21          6           0       -2.861398   -0.025810    0.478106
     22          6           0       -0.032252   -0.592726    2.476731
     23          6           0       -0.184622    0.927476    2.657152
     24          1           0       -1.230135    1.238301    2.578227
     25          1           0        0.188268    1.222996    3.645034
     26          1           0        0.383282    1.475517    1.897626
     27          6           0       -0.804250   -1.310127    3.597997
     28          1           0       -0.734535   -2.394959    3.496702
     29          1           0       -0.385497   -1.019756    4.568192
     30          1           0       -1.862313   -1.025313    3.601048
     31          6           0        1.456375   -0.955627    2.581258
     32          1           0        2.055051   -0.407962    1.851847
     33          1           0        1.825523   -0.694702    3.579561
     34          1           0        1.625411   -2.026187    2.430847
     35          6           0        2.004132    4.433439   -1.163500
     36          6           0        1.307413    3.281815   -1.523870
     37          6           0        1.823393    2.012885   -1.218775
     38          6           0        3.061586    1.906675   -0.529444
     39          6           0        3.223258    4.341138   -0.494035
     40          6           0        1.126542    0.813213   -1.569519
     41          6           0        3.571875    0.616367   -0.200735
     42          6           0        2.848175   -0.572538   -0.550642
     43          6           0        1.578647   -0.437504   -1.257550
     44          6           0        3.398069   -1.805750   -0.155376
     45          1           0        2.870601   -2.724308   -0.355971
     46          6           0        4.604956   -1.883231    0.536258
     47          6           0        5.310895   -0.733498    0.867392
     48          1           0        0.178603    0.941282   -2.073910
     49          1           0        1.593293    5.409719   -1.403286
     50          1           0        0.353938    3.354485   -2.039314
     51          1           0        3.762170    5.242451   -0.214304
     52          1           0        4.988369   -2.857487    0.825046
     53          1           0        6.249569   -0.798398    1.410789
     54          6           0        3.770089    3.090902   -0.164110
     55          6           0        4.809331    0.526225    0.511765
     56          6           0        5.015919    2.959272    0.536094
     57          1           0        5.555089    3.862295    0.809561
     58          6           0        5.508932    1.733053    0.857754
     59          1           0        6.449717    1.640063    1.393829
     60          6           0       -5.328552    0.350569    0.158938
     61          6           0       -6.345263   -0.346271   -0.503850
     62          6           0       -5.497963    1.705598    0.465009
     63          6           0       -7.520552    0.309028   -0.868915
     64          1           0       -6.209104   -1.398953   -0.737807
     65          6           0       -6.668897    2.355937    0.080565
     66          1           0       -4.719989    2.236522    0.997150
     67          6           0       -7.683982    1.665559   -0.586004
     68          1           0       -8.302720   -0.242152   -1.382697
     69          1           0       -6.791807    3.408906    0.316981
     70          1           0       -8.595140    2.179441   -0.877276
     71          6           0       -0.590208   -1.304025   -2.334579
     72          1           0       -1.121789   -2.228356   -2.576039
     73          1           0       -1.225595   -0.706543   -1.679210
     74          1           0       -0.441227   -0.749361   -3.265348
 ---------------------------------------------------------------------

 SCF Done:  E(RB3LYP) =  -1955.20902971     A.U. after   13 cycles

 The electronic state is 1-A.
 Alpha  occ. eigenvalues --  -88.83228 -19.09827 -14.36793 -14.36206 -14.35581
 Alpha  occ. eigenvalues --  -10.30150 -10.28042 -10.24296 -10.23011 -10.22468
 Alpha  occ. eigenvalues --  -10.21061 -10.19916 -10.19808 -10.19633 -10.19496
 Alpha  occ. eigenvalues --  -10.19390 -10.19267 -10.19192 -10.19164 -10.18565
 Alpha  occ. eigenvalues --  -10.18508 -10.18466 -10.18435 -10.18380 -10.18379
 Alpha  occ. eigenvalues --  -10.18318 -10.18315 -10.18306 -10.18252 -10.18233
 Alpha  occ. eigenvalues --  -10.18229 -10.18182 -10.18164 -10.18141 -10.18035
 Alpha  occ. eigenvalues --  -10.16788 -10.15401 -10.15348 -10.15300  -7.88581
 Alpha  occ. eigenvalues --   -5.85070  -5.84514  -5.84199  -1.04497  -1.00333
 Alpha  occ. eigenvalues --   -0.95091  -0.93283  -0.89923  -0.85714  -0.85643
 Alpha  occ. eigenvalues --   -0.84315  -0.82076  -0.80920  -0.80151  -0.78336
 Alpha  occ. eigenvalues --   -0.77160  -0.76551  -0.75432  -0.74388  -0.73542
 Alpha  occ. eigenvalues --   -0.73105  -0.71499  -0.71236  -0.68865  -0.68180
 Alpha  occ. eigenvalues --   -0.67981  -0.65007  -0.63490  -0.63288  -0.62874
 Alpha  occ. eigenvalues --   -0.62167  -0.61932  -0.61317  -0.59928  -0.58549
 Alpha  occ. eigenvalues --   -0.56746  -0.55604  -0.54798  -0.54444  -0.53746
 Alpha  occ. eigenvalues --   -0.53198  -0.51525  -0.50960  -0.50562  -0.50498
 Alpha  occ. eigenvalues --   -0.49060  -0.48101  -0.47964  -0.47287  -0.46748
 Alpha  occ. eigenvalues --   -0.46181  -0.45118  -0.44789  -0.44373  -0.44304
 Alpha  occ. eigenvalues --   -0.44086  -0.43987  -0.42957  -0.42852  -0.42530
 Alpha  occ. eigenvalues --   -0.42356  -0.41645  -0.41469  -0.41430  -0.41309
 Alpha  occ. eigenvalues --   -0.40450  -0.40051  -0.39549  -0.39424  -0.38570
 Alpha  occ. eigenvalues --   -0.38237  -0.38138  -0.37639  -0.37281  -0.37202
 Alpha  occ. eigenvalues --   -0.37121  -0.36982  -0.36779  -0.36521  -0.36008
 Alpha  occ. eigenvalues --   -0.35836  -0.35677  -0.35414  -0.34474  -0.33809
 Alpha  occ. eigenvalues --   -0.33522  -0.33178  -0.32803  -0.32251  -0.32127
 Alpha  occ. eigenvalues --   -0.30593  -0.29734  -0.28222  -0.26747  -0.26495
 Alpha  occ. eigenvalues --   -0.26363  -0.25207  -0.24044  -0.23775  -0.22470
 Alpha  occ. eigenvalues --   -0.21465  -0.20865
 Alpha virt. eigenvalues --   -0.06960  -0.04031  -0.03484  -0.02109  -0.01813
 Alpha virt. eigenvalues --   -0.00326  -0.00064   0.01065   0.02107   0.03319
 Alpha virt. eigenvalues --    0.04007   0.04529   0.04723   0.04813   0.05151

 Mulliken charges:
               1
     1  S   -0.432674
     2  O   -0.440111
     3  N   -0.094820
     4  N   -0.151297
     5  H    0.142459
     6  N   -0.141588
     7  H    0.145261
     8  C    0.228937
     9  C   -0.175614
    10  H    0.104820
    11  H    0.098553
    12  C   -0.187952
    13  H    0.105201
    14  H    0.097287
    15  C   -0.113398
    16  H    0.096893
    17  H    0.109390
    18  C    0.208110
    19  C    0.038089
    20  H    0.154895
    21  C    0.121633
    22  C    0.172531
    23  C   -0.316977
    24  H    0.098671
    25  H    0.088745
    26  H    0.107100
    27  C   -0.339530
    28  H    0.102784
    29  H    0.088944
    30  H    0.080630
    31  C   -0.329246
    32  H    0.113314
    33  H    0.089452
    34  H    0.089230
    35  C   -0.142011
    36  C   -0.147350
    37  C    0.098240
    38  C    0.039121
    39  C   -0.162106
    40  C   -0.121179
    41  C   -0.005439
    42  C    0.091055
    43  C   -0.138538
    44  C   -0.125596
    45  H    0.123315
    46  C   -0.184946
    47  C   -0.144988
    48  H    0.121093
    49  H    0.120539
    50  H    0.110270
    51  H    0.111451
    52  H    0.114269
    53  H    0.111894
    54  C    0.081480
    55  C    0.097719
    56  C   -0.153958
    57  H    0.112284
    58  C   -0.159458
    59  H    0.111249
    60  C    0.159834
    61  C   -0.168839
    62  C   -0.111116
    63  C   -0.116683
    64  H    0.110666
    65  C   -0.114446
    66  H    0.128242
    67  C   -0.136246
    68  H    0.121672
    69  H    0.122137
    70  H    0.120875
    71  C   -0.366019
    72  H    0.100735
    73  H    0.132448
    74  H    0.098610
 Sum of Mulliken charges =   0.00000

 Dipole moment (field-independent basis, Debye):
    X=              0.3946    Y=             -2.6459    Z=             -1.5930  Tot=              3.1135
 Quadrupole moment (field-independent basis, Debye-Ang):
   XX=           -213.2454   YY=           -227.1673   ZZ=           -238.9481
   XY=              6.9043   XZ=              5.7475   YZ=             11.9602

 Normal termination of Gaussian 09 at Thu Mar 30 05:09:11 2017.
