 Gaussian 09, Revision D.01,
 Gaussian 09:  EM64L-G09RevD.01 24-Apr-2013

 ----------------------------------------------------------------------
 #p b3lyp cc-pVTZ empiricaldispersion=gd3bj scrf=(pcm,solvent=diethylet
 her)
 ----------------------------------------------------------------------

 -----
 title
 -----
 Symbolic Z-matrix:
 Charge =  0 Multiplicity = 1

                         Standard orientation:
 ---------------------------------------------------------------------
 Center     Atomic      Atomic             Coordinates (Angstroms)
 Number     Number       Type             X           Y           Z
 ---------------------------------------------------------------------
      1         16           0       -2.396970    2.587521    0.986394
      2          8           0       -1.486423   -1.657569   -1.415570
      3          7           0       -2.075914   -1.863878    0.762534
      4          7           0       -2.168648    0.967151   -1.137471
      5          1           0       -1.573999    0.565272   -1.858111
      6          7           0       -0.449029    2.422017   -0.915515
      7          1           0       -0.088817    1.849536   -1.670738
      8          6           0       -1.001181   -2.845949    1.043650
      9          1           0       -1.230728   -3.766297    0.494572
     10          6           0       -1.155590   -3.099450    2.558893
     11          1           0       -0.533514   -2.396230    3.120755
     12          1           0       -0.836407   -4.110760    2.821571
     13          6           0       -2.642414   -2.838076    2.827198
     14          1           0       -2.860590   -2.625094    3.876711
     15          1           0       -3.240881   -3.703903    2.522887
     16          6           0       -2.961577   -1.645184    1.918918
     17          1           0       -2.735407   -0.691357    2.413520
     18          1           0       -4.006359   -1.624358    1.607918
     19          6           0       -2.178056   -1.292188   -0.457283
     20          6           0       -3.077180   -0.050601   -0.605221
     21          1           0       -3.410608    0.308497    0.367305
     22          6           0       -1.629055    1.977472   -0.391194
     23          6           0       -4.325335   -0.251587   -1.511261
     24          6           0       -5.143755    1.049250   -1.473935
     25          1           0       -4.552580    1.893353   -1.842437
     26          1           0       -6.036043    0.953611   -2.103088
     27          1           0       -5.466841    1.284908   -0.453997
     28          6           0       -3.935873   -0.568358   -2.964703
     29          1           0       -3.339867   -1.481213   -3.033212
     30          1           0       -4.841923   -0.694998   -3.568062
     31          1           0       -3.358206    0.251299   -3.406041
     32          6           0       -5.170022   -1.405190   -0.945480
     33          1           0       -5.520567   -1.184617    0.069472
     34          1           0       -6.055654   -1.562947   -1.570426
     35          1           0       -4.609273   -2.346940   -0.921766
     36          6           0        4.529300   -3.641631   -1.668711
     37          6           0        3.241622   -3.956849   -1.238598
     38          6           0        2.481479   -3.024942   -0.514485
     39          6           0        3.040775   -1.748717   -0.218065
     40          6           0        5.083404   -2.393570   -1.389234
     41          6           0        1.147020   -3.303309   -0.077122
     42          6           0        2.277022   -0.798774    0.521823
     43          6           0        0.947586   -1.110225    0.960528
     44          6           0        0.389695   -2.407584    0.619417
     45          6           0        0.254247   -0.130633    1.692077
     46          1           0       -0.755525   -0.312168    2.024329
     47          6           0        0.830864    1.101930    1.991781
     48          6           0        2.115450    1.408926    1.563443
     49          1           0        0.721917   -4.268911   -0.340842
     50          1           0        5.104601   -4.373361   -2.228596
     51          1           0        2.811536   -4.929081   -1.464206
     52          1           0        6.086640   -2.152365   -1.730614
     53          1           0        0.248371    1.838079    2.534282
     54          1           0        2.546834    2.382989    1.773142
     55          6           0        4.359146   -1.431874   -0.666776
     56          6           0        2.852788    0.475116    0.822365
     57          6           0        4.896299   -0.134655   -0.365534
     58          1           0        5.895916    0.105614   -0.718172
     59          6           0        4.174672    0.773894    0.345472
     60          1           0        4.584637    1.755318    0.567678
     61          6           0        0.488709    3.397013   -0.513380
     62          6           0        1.756248    3.296412   -1.111065
     63          6           0        0.242883    4.424093    0.405299
     64          6           0        2.768602    4.188585   -0.779589
     65          1           0        1.955652    2.492983   -1.815892
     66          6           0        1.271269    5.308889    0.734458
     67          1           0       -0.730173    4.514518    0.863530
     68          6           0        2.535357    5.200419    0.155111
     69          1           0        3.743595    4.083634   -1.246264
     70          1           0        1.070541    6.096642    1.455113
     71          1           0        3.325367    5.895626    0.422320
 ---------------------------------------------------------------------

 SCF Done:  E(RB3LYP) =  -1915.88376763     A.U. after   14 cycles

 The electronic state is 1-A.
 Alpha  occ. eigenvalues --  -88.83650 -19.10075 -14.37557 -14.35817 -14.35709
 Alpha  occ. eigenvalues --  -10.30255 -10.28030 -10.23372 -10.22798 -10.22454
 Alpha  occ. eigenvalues --  -10.22006 -10.19740 -10.19497 -10.19457 -10.19285
 Alpha  occ. eigenvalues --  -10.19277 -10.19156 -10.19096 -10.19046 -10.18647
 Alpha  occ. eigenvalues --  -10.18484 -10.18434 -10.18412 -10.18349 -10.18293
 Alpha  occ. eigenvalues --  -10.18281 -10.18272 -10.18199 -10.18177 -10.18024
 Alpha  occ. eigenvalues --  -10.17883 -10.17819 -10.17763 -10.17726 -10.17625
 Alpha  occ. eigenvalues --  -10.16766 -10.15930 -10.15835  -7.89004  -5.85484
 Alpha  occ. eigenvalues --   -5.84949  -5.84621  -1.04805  -1.00559  -0.95580
 Alpha  occ. eigenvalues --   -0.93393  -0.89668  -0.85721  -0.85434  -0.84011
 Alpha  occ. eigenvalues --   -0.82673  -0.80669  -0.80031  -0.77787  -0.76821
 Alpha  occ. eigenvalues --   -0.76603  -0.75391  -0.73746  -0.73174  -0.72926
 Alpha  occ. eigenvalues --   -0.71230  -0.70985  -0.69083  -0.68574  -0.65713
 Alpha  occ. eigenvalues --   -0.63362  -0.63181  -0.63062  -0.62427  -0.62119
 Alpha  occ. eigenvalues --   -0.61381  -0.60385  -0.58229  -0.56353  -0.56218
 Alpha  occ. eigenvalues --   -0.54854  -0.54472  -0.53836  -0.53484  -0.51818
 Alpha  occ. eigenvalues --   -0.51181  -0.50888  -0.50180  -0.49320  -0.48465
 Alpha  occ. eigenvalues --   -0.47707  -0.47256  -0.46953  -0.45324  -0.45194
 Alpha  occ. eigenvalues --   -0.44616  -0.44114  -0.43933  -0.43739  -0.43651
 Alpha  occ. eigenvalues --   -0.43220  -0.42730  -0.42570  -0.42405  -0.41978
 Alpha  occ. eigenvalues --   -0.41788  -0.41460  -0.41154  -0.40434  -0.40032
 Alpha  occ. eigenvalues --   -0.39396  -0.38812  -0.38596  -0.37777  -0.37717
 Alpha  occ. eigenvalues --   -0.37506  -0.37039  -0.36929  -0.36889  -0.36684
 Alpha  occ. eigenvalues --   -0.36584  -0.36506  -0.36249  -0.35268  -0.34551
 Alpha  occ. eigenvalues --   -0.34345  -0.33860  -0.33385  -0.33168  -0.33043
 Alpha  occ. eigenvalues --   -0.32186  -0.30792  -0.30287  -0.28150  -0.27433
 Alpha  occ. eigenvalues --   -0.26247  -0.25901  -0.25430  -0.23850  -0.23610
 Alpha  occ. eigenvalues --   -0.22415  -0.21852  -0.20477
 Alpha virt. eigenvalues --   -0.06696  -0.04016  -0.03805  -0.01832  -0.01666
 Alpha virt. eigenvalues --   -0.00333   0.00287   0.01437   0.02218   0.02891
 Alpha virt. eigenvalues --    0.04059   0.04384   0.04576   0.04899   0.05614

 Mulliken charges:
               1
     1  S   -0.428611
     2  O   -0.429987
     3  N   -0.037948
     4  N   -0.157626
     5  H    0.127426
     6  N   -0.087138
     7  H    0.142325
     8  C   -0.016849
     9  H    0.103758
    10  C   -0.162828
    11  H    0.103567
    12  H    0.106390
    13  C   -0.184455
    14  H    0.109838
    15  H    0.095695
    16  C   -0.123066
    17  H    0.102318
    18  H    0.126494
    19  C    0.156674
    20  C    0.063305
    21  H    0.138588
    22  C    0.119150
    23  C    0.170685
    24  C   -0.315910
    25  H    0.097707
    26  H    0.092313
    27  H    0.090874
    28  C   -0.323690
    29  H    0.099419
    30  H    0.090841
    31  H    0.084309
    32  C   -0.336370
    33  H    0.095136
    34  H    0.098199
    35  H    0.098031
    36  C   -0.147092
    37  C   -0.156315
    38  C    0.091963
    39  C    0.033508
    40  C   -0.160786
    41  C   -0.206058
    42  C    0.014568
    43  C    0.124169
    44  C    0.034005
    45  C   -0.174493
    46  H    0.124085
    47  C   -0.182399
    48  C   -0.142279
    49  H    0.091284
    50  H    0.118784
    51  H    0.108996
    52  H    0.110274
    53  H    0.110841
    54  H    0.121205
    55  C    0.072803
    56  C    0.091288
    57  C   -0.160505
    58  H    0.111688
    59  C   -0.148810
    60  H    0.110311
    61  C    0.147378
    62  C   -0.153765
    63  C   -0.119130
    64  C   -0.122981
    65  H    0.105778
    66  C   -0.109755
    67  H    0.132079
    68  C   -0.150009
    69  H    0.125990
    70  H    0.123609
    71  H    0.121205
 Sum of Mulliken charges =   0.00000

 Dipole moment (field-independent basis, Debye):
    X=              0.3651    Y=             -3.0244    Z=              0.1794  Tot=              3.0516
 Quadrupole moment (field-independent basis, Debye-Ang):
   XX=           -216.6253   YY=           -226.3539   ZZ=           -229.2168
   XY=             20.8759   XZ=             -9.4102   YZ=             -6.9112

 Normal termination of Gaussian 09 at Thu Mar 30 06:04:23 2017.
