 Gaussian 09, Revision D.01,
 Gaussian 09:  EM64L-G09RevD.01 24-Apr-2013

 ----------------------------------------------------------------------
 #p b3lyp cc-pVTZ empiricaldispersion=gd3bj scrf=(pcm,solvent=diethylet
 her)
 ----------------------------------------------------------------------

 -----
 title
 -----
 Symbolic Z-matrix:
 Charge =  0 Multiplicity = 1

                         Standard orientation:
 ---------------------------------------------------------------------
 Center     Atomic      Atomic             Coordinates (Angstroms)
 Number     Number       Type             X           Y           Z
 ---------------------------------------------------------------------
      1         16           0       -1.089906    2.188042    1.640244
      2          8           0       -1.641139   -1.086121   -1.656987
      3          7           0       -2.040929   -1.691826    0.485067
      4          7           0       -1.900537    1.493470   -0.832009
      5          1           0       -1.609903    1.262501   -1.778813
      6          7           0        0.240351    2.253977   -0.717488
      7          1           0        0.309787    1.828563   -1.635126
      8          6           0       -1.092294   -2.817469    0.374990
      9          1           0       -1.319248   -3.394831   -0.524015
     10          6           0       -1.387649   -3.627656    1.653930
     11          1           0       -0.524063   -4.216768    1.970853
     12          1           0       -2.219941   -4.314109    1.461096
     13          6           0       -1.803781   -2.560065    2.674763
     14          1           0       -0.918274   -2.074514    3.096228
     15          1           0       -2.391781   -2.963888    3.502697
     16          6           0       -2.607216   -1.551538    1.840175
     17          1           0       -2.492567   -0.530090    2.210893
     18          1           0       -3.673910   -1.802649    1.827522
     19          6           0       -2.169037   -0.847458   -0.562356
     20          6           0       -2.871069    0.505373   -0.349271
     21          1           0       -3.015276    0.710238    0.708718
     22          6           0       -0.900608    1.970959   -0.025561
     23          6           0       -4.246992    0.638815   -1.054798
     24          6           0       -4.858251    1.988650   -0.645622
     25          1           0       -4.204194    2.816935   -0.935497
     26          1           0       -5.829818    2.130270   -1.132578
     27          1           0       -5.010378    2.041421    0.438647
     28          6           0       -4.125509    0.572096   -2.586655
     29          1           0       -3.646090   -0.354197   -2.911725
     30          1           0       -5.122480    0.627777   -3.037871
     31          1           0       -3.544962    1.415484   -2.978054
     32          6           0       -5.149116   -0.505809   -0.562166
     33          1           0       -5.259339   -0.483869    0.528332
     34          1           0       -6.148881   -0.412569   -0.999511
     35          1           0       -4.750775   -1.486282   -0.847131
     36          6           0        4.899686   -2.830995   -1.366990
     37          6           0        3.605373   -3.293171   -1.281008
     38          6           0        2.628248   -2.584765   -0.531337
     39          6           0        3.014408   -1.378041    0.137179
     40          6           0        4.356769   -0.927335    0.029825
     41          6           0        5.279673   -1.636137   -0.706251
     42          1           0        0.991835   -3.931654   -0.961097
     43          1           0        5.636741   -3.382111   -1.944133
     44          1           0        3.311928   -4.208721   -1.788544
     45          6           0        1.281103   -3.023334   -0.436286
     46          6           0        2.031444   -0.666738    0.872928
     47          1           0        4.638409   -0.008643    0.537088
     48          1           0        6.304090   -1.282889   -0.782933
     49          6           0        0.735851   -1.119725    0.941512
     50          6           0        0.341722   -2.315219    0.281957
     51          1           0        2.309830    0.258418    1.368351
     52          1           0        0.002160   -0.530689    1.479607
     53          6           0        1.461619    2.806109   -0.258838
     54          6           0        1.516532    3.902382    0.607925
     55          6           0        2.644960    2.249639   -0.759270
     56          6           0        2.756742    4.413475    0.988129
     57          1           0        0.600497    4.343239    0.977209
     58          6           0        3.878636    2.777608   -0.383921
     59          1           0        2.597077    1.390235   -1.421626
     60          6           0        3.940597    3.857461    0.498399
     61          1           0        2.793797    5.261669    1.665433
     62          1           0        4.788804    2.334708   -0.777194
     63          1           0        4.901304    4.265328    0.797871
 ---------------------------------------------------------------------

 SCF Done:  E(RB3LYP) =  -1685.90642982     A.U. after   13 cycles

 The electronic state is 1-A.
 Alpha  occ. eigenvalues --  -88.83757 -19.09898 -14.37313 -14.35710 -14.35613
 Alpha  occ. eigenvalues --  -10.30233 -10.27853 -10.23118 -10.22410 -10.22317
 Alpha  occ. eigenvalues --  -10.21638 -10.19925 -10.19072 -10.18944 -10.18855
 Alpha  occ. eigenvalues --  -10.18570 -10.18496 -10.18400 -10.18309 -10.18272
 Alpha  occ. eigenvalues --  -10.18261 -10.18174 -10.18138 -10.18126 -10.18097
 Alpha  occ. eigenvalues --  -10.18051 -10.17892 -10.17829 -10.17605 -10.16743
 Alpha  occ. eigenvalues --  -10.16144 -10.16081  -7.89103  -5.85579  -5.85048
 Alpha  occ. eigenvalues --   -5.84726  -1.04644  -1.00462  -0.95358  -0.93360
 Alpha  occ. eigenvalues --   -0.87773  -0.85807  -0.83173  -0.82654  -0.80177
 Alpha  occ. eigenvalues --   -0.77963  -0.76663  -0.76382  -0.75524  -0.73377
 Alpha  occ. eigenvalues --   -0.73186  -0.71710  -0.70966  -0.69122  -0.68800
 Alpha  occ. eigenvalues --   -0.65482  -0.63110  -0.62873  -0.62194  -0.61516
 Alpha  occ. eigenvalues --   -0.60105  -0.59550  -0.58028  -0.56580  -0.56011
 Alpha  occ. eigenvalues --   -0.54942  -0.54056  -0.51892  -0.51625  -0.51017
 Alpha  occ. eigenvalues --   -0.50442  -0.49435  -0.48180  -0.47827  -0.46329
 Alpha  occ. eigenvalues --   -0.46257  -0.45703  -0.45028  -0.44305  -0.44132
 Alpha  occ. eigenvalues --   -0.43581  -0.43128  -0.43042  -0.42786  -0.42267
 Alpha  occ. eigenvalues --   -0.41978  -0.41534  -0.41002  -0.40976  -0.39789
 Alpha  occ. eigenvalues --   -0.39682  -0.38902  -0.38658  -0.37825  -0.37632
 Alpha  occ. eigenvalues --   -0.37338  -0.36950  -0.36876  -0.36843  -0.36667
 Alpha  occ. eigenvalues --   -0.36020  -0.35511  -0.35007  -0.33865  -0.33629
 Alpha  occ. eigenvalues --   -0.33482  -0.33259  -0.32911  -0.32633  -0.30427
 Alpha  occ. eigenvalues --   -0.29179  -0.26865  -0.26415  -0.25714  -0.24808
 Alpha  occ. eigenvalues --   -0.24125  -0.22876  -0.22191  -0.21938
 Alpha virt. eigenvalues --   -0.05048  -0.04069  -0.02325  -0.01907  -0.00309
 Alpha virt. eigenvalues --    0.00511   0.01526   0.02472   0.03459   0.04092
 Alpha virt. eigenvalues --    0.04673   0.05283   0.05869   0.06289   0.06929

 Mulliken charges:
               1
     1  S   -0.432108
     2  O   -0.436446
     3  N   -0.050968
     4  N   -0.162496
     5  H    0.126685
     6  N   -0.105214
     7  H    0.147956
     8  C   -0.013377
     9  H    0.105071
    10  C   -0.158458
    11  H    0.099624
    12  H    0.095939
    13  C   -0.181776
    14  H    0.100308
    15  H    0.109644
    16  C   -0.124564
    17  H    0.113874
    18  H    0.109382
    19  C    0.165479
    20  C    0.069473
    21  H    0.134408
    22  C    0.125996
    23  C    0.156217
    24  C   -0.319620
    25  H    0.096253
    26  H    0.093086
    27  H    0.091441
    28  C   -0.324058
    29  H    0.100438
    30  H    0.091755
    31  H    0.085358
    32  C   -0.331942
    33  H    0.096337
    34  H    0.097955
    35  H    0.097385
    36  C   -0.142584
    37  C   -0.135939
    38  C    0.091230
    39  C    0.082974
    40  C   -0.134478
    41  C   -0.148716
    42  H    0.096207
    43  H    0.119228
    44  H    0.110073
    45  C   -0.186994
    46  C   -0.175175
    47  H    0.119207
    48  H    0.118874
    49  C   -0.172980
    50  C    0.107062
    51  H    0.124153
    52  H    0.132110
    53  C    0.164652
    54  C   -0.119408
    55  C   -0.176275
    56  C   -0.110116
    57  H    0.126148
    58  C   -0.116581
    59  H    0.125431
    60  C   -0.142671
    61  H    0.122822
    62  H    0.130919
    63  H    0.121788
 Sum of Mulliken charges =   0.00000

 Dipole moment (field-independent basis, Debye):
    X=             -0.6081    Y=             -2.3399    Z=             -0.8343  Tot=              2.5576
 Quadrupole moment (field-independent basis, Debye-Ang):
   XX=           -178.1105   YY=           -193.3443   ZZ=           -201.2639
   XY=             10.7942   XZ=             -5.2360   YZ=             -8.3404

 Normal termination of Gaussian 09 at Thu Mar 30 04:35:24 2017.
