 Gaussian 09, Revision D.01,
 Gaussian 09:  EM64L-G09RevD.01 24-Apr-2013

 ----------------------------------------------------------------------
 #p b3lyp cc-pVTZ empiricaldispersion=gd3bj scrf=(pcm,solvent=diethylet
 her)
 ----------------------------------------------------------------------

 -----
 title
 -----
 Symbolic Z-matrix:
 Charge =  0 Multiplicity = 1

                         Standard orientation:
 ---------------------------------------------------------------------
 Center     Atomic      Atomic             Coordinates (Angstroms)
 Number     Number       Type             X           Y           Z
 ---------------------------------------------------------------------
      1         16           0       -0.847686    2.426230    1.619120
      2          8           0       -1.565561   -0.819583   -1.574631
      3          7           0       -2.115249   -1.428495    0.543122
      4          7           0       -1.728971    1.754972   -0.835332
      5          1           0       -1.456461    1.474129   -1.774280
      6          7           0        0.456727    2.383892   -0.752817
      7          1           0        0.488819    1.945398   -1.666356
      8          6           0       -1.274020   -2.662867    0.478083
      9          6           0       -1.528233   -3.296950    1.873331
     10          1           0       -0.665844   -3.880578    2.203415
     11          1           0       -2.388440   -3.973191    1.803329
     12          6           0       -1.862569   -2.122085    2.793283
     13          1           0       -0.950018   -1.620445    3.128162
     14          1           0       -2.426691   -2.422322    3.680078
     15          6           0       -2.674050   -1.189986    1.888526
     16          1           0       -2.565743   -0.144054    2.180388
     17          1           0       -3.738982   -1.450059    1.903690
     18          6           0       -2.122288   -0.564506   -0.497889
     19          6           0       -2.746263    0.833866   -0.320103
     20          1           0       -2.880286    1.082366    0.728817
     21          6           0       -0.692028    2.180177   -0.046164
     22          6           0       -4.115141    1.015555   -1.031399
     23          6           0       -4.644537    2.416515   -0.684416
     24          1           0       -3.945442    3.190479   -1.015847
     25          1           0       -5.609692    2.591036   -1.173404
     26          1           0       -4.785570    2.529262    0.396804
     27          6           0       -4.001295    0.872287   -2.558600
     28          1           0       -3.582387   -0.096234   -2.842010
     29          1           0       -4.993853    0.970224   -3.012300
     30          1           0       -3.369601    1.658400   -2.988017
     31          6           0       -5.083988   -0.049531   -0.489442
     32          1           0       -5.195750    0.030881    0.597994
     33          1           0       -6.075187    0.081545   -0.936460
     34          1           0       -4.742755   -1.063955   -0.724612
     35          6           0        4.736258   -3.132485   -1.242375
     36          6           0        3.417233   -3.513846   -1.134582
     37          6           0        2.479266   -2.701676   -0.442558
     38          6           0        2.931484   -1.477510    0.144552
     39          6           0        4.297494   -1.111217    0.018975
     40          6           0        5.181461   -1.919387   -0.660714
     41          1           0        0.795003   -3.993870   -0.788805
     42          1           0        5.442570   -3.762227   -1.775934
     43          1           0        3.074113   -4.443723   -1.581525
     44          6           0        1.109727   -3.063063   -0.327871
     45          6           0        1.983688   -0.669190    0.823268
     46          1           0        4.628699   -0.178091    0.466391
     47          1           0        6.224767   -1.630992   -0.752961
     48          6           0        0.665587   -1.045765    0.906543
     49          6           0        0.199190   -2.258797    0.325193
     50          1           0        2.306496    0.269263    1.264014
     51          1           0       -0.029862   -0.379197    1.401638
     52          6           0        1.717330    2.853505   -0.308410
     53          6           0        2.855161    2.205277   -0.803849
     54          6           0        1.855160    3.957066    0.539693
     55          6           0        4.125412    2.649382   -0.441711
     56          1           0        2.742003    1.340969   -1.451816
     57          6           0        3.130588    4.383813    0.907138
     58          1           0        0.975105    4.469332    0.904632
     59          6           0        4.268980    3.736213    0.422370
     60          1           0        4.999812    2.136615   -0.831240
     61          1           0        3.231679    5.237925    1.570318
     62          1           0        5.257958    4.078582    0.711655
     63          6           0       -1.758828   -3.612337   -0.624735
     64          1           0       -1.305128   -4.600740   -0.500323
     65          1           0       -2.843568   -3.731633   -0.541005
     66          1           0       -1.520519   -3.225441   -1.614935
 ---------------------------------------------------------------------

 SCF Done:  E(RB3LYP) =  -1725.23901601     A.U. after   13 cycles

 The electronic state is 1-A.
 Alpha  occ. eigenvalues --  -88.83750 -19.09795 -14.37279 -14.35561 -14.35537
 Alpha  occ. eigenvalues --  -10.30181 -10.27845 -10.23486 -10.23111 -10.22322
 Alpha  occ. eigenvalues --  -10.21541 -10.19938 -10.19000 -10.18947 -10.18730
 Alpha  occ. eigenvalues --  -10.18580 -10.18507 -10.18402 -10.18284 -10.18146
 Alpha  occ. eigenvalues --  -10.18124 -10.18100 -10.18077 -10.18056 -10.18023
 Alpha  occ. eigenvalues --  -10.17977 -10.17728 -10.17677 -10.17461 -10.16722
 Alpha  occ. eigenvalues --  -10.16433 -10.16139 -10.16108  -7.89095  -5.85570
 Alpha  occ. eigenvalues --   -5.85041  -5.84718  -1.04585  -1.00398  -0.95298
 Alpha  occ. eigenvalues --   -0.93295  -0.87693  -0.85805  -0.83315  -0.82620
 Alpha  occ. eigenvalues --   -0.80391  -0.78415  -0.77051  -0.76535  -0.75527
 Alpha  occ. eigenvalues --   -0.73866  -0.73188  -0.71794  -0.71009  -0.69127
 Alpha  occ. eigenvalues --   -0.68820  -0.68577  -0.64781  -0.63048  -0.62452
 Alpha  occ. eigenvalues --   -0.62134  -0.61440  -0.60091  -0.59378  -0.57924
 Alpha  occ. eigenvalues --   -0.56443  -0.55403  -0.54543  -0.53611  -0.51864
 Alpha  occ. eigenvalues --   -0.51410  -0.50859  -0.50229  -0.49465  -0.48077
 Alpha  occ. eigenvalues --   -0.47569  -0.46300  -0.46234  -0.45296  -0.45008
 Alpha  occ. eigenvalues --   -0.44370  -0.44180  -0.43709  -0.43279  -0.43038
 Alpha  occ. eigenvalues --   -0.42854  -0.42453  -0.42191  -0.41866  -0.41350
 Alpha  occ. eigenvalues --   -0.41121  -0.40511  -0.39747  -0.39280  -0.38880
 Alpha  occ. eigenvalues --   -0.38798  -0.38044  -0.37659  -0.37297  -0.37164
 Alpha  occ. eigenvalues --   -0.36885  -0.36777  -0.36483  -0.35806  -0.35533
 Alpha  occ. eigenvalues --   -0.35425  -0.34220  -0.33744  -0.33489  -0.33391
 Alpha  occ. eigenvalues --   -0.33107  -0.32687  -0.32443  -0.30369  -0.29089
 Alpha  occ. eigenvalues --   -0.26746  -0.26412  -0.25624  -0.24770  -0.24071
 Alpha  occ. eigenvalues --   -0.22881  -0.22129  -0.21920
 Alpha virt. eigenvalues --   -0.04906  -0.04022  -0.02247  -0.01918  -0.00169
 Alpha virt. eigenvalues --    0.00498   0.01573   0.02441   0.03394   0.04098
 Alpha virt. eigenvalues --    0.04711   0.05057   0.05857   0.06120   0.06906

 Mulliken charges:
               1
     1  S   -0.433107
     2  O   -0.444021
     3  N   -0.076110
     4  N   -0.163810
     5  H    0.125858
     6  N   -0.104556
     7  H    0.147825
     8  C    0.168462
     9  C   -0.155278
    10  H    0.099462
    11  H    0.090406
    12  C   -0.192642
    13  H    0.100246
    14  H    0.110150
    15  C   -0.117111
    16  H    0.113048
    17  H    0.107799
    18  C    0.171133
    19  C    0.078368
    20  H    0.135880
    21  C    0.124647
    22  C    0.158310
    23  C   -0.321275
    24  H    0.096134
    25  H    0.092947
    26  H    0.091377
    27  C   -0.323997
    28  H    0.101180
    29  H    0.092096
    30  H    0.085877
    31  C   -0.337148
    32  H    0.096329
    33  H    0.097348
    34  H    0.102822
    35  C   -0.142837
    36  C   -0.133854
    37  C    0.088262
    38  C    0.084230
    39  C   -0.135472
    40  C   -0.150294
    41  H    0.102936
    42  H    0.118907
    43  H    0.108427
    44  C   -0.177626
    45  C   -0.183015
    46  H    0.119336
    47  H    0.118369
    48  C   -0.175119
    49  C    0.085482
    50  H    0.124366
    51  H    0.129950
    52  C    0.162689
    53  C   -0.178445
    54  C   -0.118300
    55  C   -0.116712
    56  H    0.127055
    57  C   -0.110004
    58  H    0.126096
    59  C   -0.142123
    60  H    0.131359
    61  H    0.122864
    62  H    0.121792
    63  C   -0.333805
    64  H    0.097992
    65  H    0.093269
    66  H    0.115574
 Sum of Mulliken charges =   0.00000

 Dipole moment (field-independent basis, Debye):
    X=             -1.0535    Y=             -2.4219    Z=             -0.9595  Tot=              2.8100
 Quadrupole moment (field-independent basis, Debye-Ang):
   XX=           -183.7412   YY=           -201.7356   ZZ=           -207.5624
   XY=              9.7463   XZ=             -5.7474   YZ=             -8.2118

 Normal termination of Gaussian 09 at Thu Mar 30 03:48:24 2017.
