 Gaussian 09, Revision D.01,
 Gaussian 09:  EM64L-G09RevD.01 24-Apr-2013

 ----------------------------------------------------------------------
 #p b3lyp cc-pVTZ empiricaldispersion=gd3bj scrf=(pcm,solvent=diethylet
 her)
 ----------------------------------------------------------------------

 -----
 title
 -----
 Symbolic Z-matrix:
 Charge =  0 Multiplicity = 1

                         Standard orientation:
 ---------------------------------------------------------------------
 Center     Atomic      Atomic             Coordinates (Angstroms)
 Number     Number       Type             X           Y           Z
 ---------------------------------------------------------------------
      1         16           0       -2.186970    1.326132   -0.199656
      2          8           0       -0.109088   -3.341075    1.139921
      3          7           0        0.959904   -2.405006   -0.615261
      4          7           0       -1.764328   -1.069650    0.945174
      5          1           0       -2.120442   -1.943355    1.318003
      6          7           0       -3.938169   -0.620387    0.495911
      7          1           0       -4.058758   -1.606835    0.695926
      8          6           0        1.194325   -1.365249   -1.675917
      9          6           0        2.098140   -2.127110   -2.687183
     10          1           0        3.153094   -1.998285   -2.442061
     11          1           0        1.948386   -1.728892   -3.693717
     12          6           0        1.683721   -3.597672   -2.555641
     13          1           0        2.477577   -4.283977   -2.861549
     14          1           0        0.808984   -3.808393   -3.178508
     15          6           0        1.329331   -3.759930   -1.074142
     16          1           0        2.177124   -4.127295   -0.482464
     17          1           0        0.497580   -4.443896   -0.897268
     18          6           0        0.204882   -2.319869    0.510799
     19          6           0       -0.308177   -0.962615    1.021466
     20          1           0       -0.011088   -0.145564    0.371524
     21          6           0       -2.643391   -0.170792    0.444084
     22          6           0        0.175214   -0.634022    2.480682
     23          6           0       -0.086354    0.859211    2.740976
     24          1           0       -1.146666    1.106480    2.637374
     25          1           0        0.228905    1.119543    3.758435
     26          1           0        0.471820    1.486491    2.037690
     27          6           0       -0.575834   -1.467134    3.533970
     28          1           0       -0.439159   -2.537088    3.363925
     29          1           0       -0.195684   -1.218399    4.531225
     30          1           0       -1.648784   -1.244840    3.528536
     31          6           0        1.682515   -0.900194    2.611540
     32          1           0        2.262141   -0.276650    1.928901
     33          1           0        2.006021   -0.666930    3.632346
     34          1           0        1.930850   -1.947830    2.414328
     35          6           0        1.792006    4.773570   -0.829287
     36          6           0        1.238675    3.573003   -1.226408
     37          6           0        1.904316    2.351850   -0.973533
     38          6           0        3.151067    2.348192   -0.295707
     39          6           0        3.034671    4.778799   -0.167592
     40          6           0        1.321658    1.116354   -1.393224
     41          6           0        3.784661    1.066776   -0.024282
     42          6           0        3.154685   -0.152267   -0.435548
     43          6           0        1.887050   -0.102412   -1.152299
     44          6           0        3.789662   -1.371372   -0.089006
     45          1           0        3.314982   -2.308022   -0.331713
     46          6           0        4.987109   -1.406757    0.597381
     47          6           0        5.611895   -0.209413    0.978098
     48          1           0        0.367703    1.187490   -1.897190
     49          1           0        1.273834    5.707920   -1.023383
     50          1           0        0.278697    3.545699   -1.734686
     51          1           0        3.476735    5.720203    0.145592
     52          1           0        5.435253   -2.363553    0.848610
     53          1           0        6.553817   -0.227865    1.518196
     54          6           0        3.697642    3.592962    0.093276
     55          6           0        5.013039    0.996566    0.673196
     56          6           0       -5.128190    0.031699    0.087919
     57          6           0       -6.083568   -0.726982   -0.598276
     58          6           0       -5.401379    1.365079    0.413978
     59          6           0       -7.300186   -0.154665   -0.966753
     60          1           0       -5.867142   -1.762549   -0.847914
     61          6           0       -6.613512    1.932884    0.026019
     62          1           0       -4.670415    1.943730    0.962459
     63          6           0       -7.567373    1.180961   -0.663702
     64          1           0       -8.033457   -0.753655   -1.498811
     65          1           0       -6.816663    2.969692    0.278076
     66          1           0       -8.511122    1.630653   -0.957332
     67          1           0        4.649552    3.635492    0.609545
     68          1           0        5.501434    1.911093    0.987411
     69          6           0       -0.154318   -1.088918   -2.367476
     70          1           0       -0.587997   -2.039631   -2.689099
     71          1           0       -0.869720   -0.594872   -1.708157
     72          1           0       -0.018899   -0.463495   -3.254338
 ---------------------------------------------------------------------

 SCF Done:  E(RB3LYP) =  -1878.94314678     A.U. after   13 cycles

 The electronic state is 1-A.
 Alpha  occ. eigenvalues --  -88.83216 -19.09854 -14.36824 -14.36180 -14.35581
 Alpha  occ. eigenvalues --  -10.30157 -10.28036 -10.24298 -10.23025 -10.22437
 Alpha  occ. eigenvalues --  -10.21050 -10.19860 -10.19797 -10.19651 -10.19531
 Alpha  occ. eigenvalues --  -10.19216 -10.19065 -10.18557 -10.18456 -10.18329
 Alpha  occ. eigenvalues --  -10.18313 -10.18291 -10.18272 -10.18253 -10.18227
 Alpha  occ. eigenvalues --  -10.18217 -10.18174 -10.18139 -10.18110 -10.18108
 Alpha  occ. eigenvalues --  -10.18105 -10.18037 -10.18017 -10.16776 -10.15427
 Alpha  occ. eigenvalues --  -10.15374 -10.15317  -7.88571  -5.85061  -5.84503
 Alpha  occ. eigenvalues --   -5.84189  -1.04500  -1.00328  -0.95083  -0.93276
 Alpha  occ. eigenvalues --   -0.88934  -0.85634  -0.85463  -0.82806  -0.82089
 Alpha  occ. eigenvalues --   -0.80209  -0.78519  -0.77260  -0.76535  -0.75982
 Alpha  occ. eigenvalues --   -0.75414  -0.73100  -0.72918  -0.71940  -0.71265
 Alpha  occ. eigenvalues --   -0.68846  -0.68192  -0.68007  -0.64992  -0.63737
 Alpha  occ. eigenvalues --   -0.62972  -0.62203  -0.62039  -0.61531  -0.59917
 Alpha  occ. eigenvalues --   -0.58815  -0.58522  -0.56724  -0.55560  -0.54627
 Alpha  occ. eigenvalues --   -0.54072  -0.53665  -0.52165  -0.50861  -0.50651
 Alpha  occ. eigenvalues --   -0.49071  -0.48836  -0.48349  -0.47946  -0.47638
 Alpha  occ. eigenvalues --   -0.46695  -0.46143  -0.44986  -0.44425  -0.44309
 Alpha  occ. eigenvalues --   -0.44099  -0.43950  -0.43421  -0.42935  -0.42771
 Alpha  occ. eigenvalues --   -0.42631  -0.42327  -0.42247  -0.41664  -0.41312
 Alpha  occ. eigenvalues --   -0.40840  -0.39991  -0.39824  -0.39420  -0.38583
 Alpha  occ. eigenvalues --   -0.38272  -0.38099  -0.37580  -0.37202  -0.37089
 Alpha  occ. eigenvalues --   -0.36935  -0.36758  -0.36682  -0.36296  -0.35998
 Alpha  occ. eigenvalues --   -0.35818  -0.35635  -0.35371  -0.34006  -0.33579
 Alpha  occ. eigenvalues --   -0.33490  -0.32874  -0.32623  -0.32401  -0.31401
 Alpha  occ. eigenvalues --   -0.29758  -0.29293  -0.27151  -0.26625  -0.26376
 Alpha  occ. eigenvalues --   -0.25316  -0.23780  -0.23430  -0.22580  -0.22279
 Alpha  occ. eigenvalues --   -0.21418
 Alpha virt. eigenvalues --   -0.05406  -0.04757  -0.03435  -0.01825  -0.01393
 Alpha virt. eigenvalues --   -0.00291   0.01059   0.01807   0.02161   0.03293
 Alpha virt. eigenvalues --    0.04362   0.04747   0.04810   0.05126   0.05518

 Mulliken charges:
               1
     1  S   -0.433916
     2  O   -0.440091
     3  N   -0.096631
     4  N   -0.150405
     5  H    0.142406
     6  N   -0.140490
     7  H    0.144878
     8  C    0.224526
     9  C   -0.176739
    10  H    0.105610
    11  H    0.098146
    12  C   -0.187591
    13  H    0.104960
    14  H    0.097193
    15  C   -0.113832
    16  H    0.096926
    17  H    0.109761
    18  C    0.210953
    19  C    0.036321
    20  H    0.152550
    21  C    0.124296
    22  C    0.172716
    23  C   -0.316658
    24  H    0.098689
    25  H    0.088427
    26  H    0.106957
    27  C   -0.340087
    28  H    0.102641
    29  H    0.088983
    30  H    0.081408
    31  C   -0.331353
    32  H    0.115574
    33  H    0.089210
    34  H    0.089368
    35  C   -0.135299
    36  C   -0.129843
    37  C    0.088029
    38  C    0.048732
    39  C   -0.143291
    40  C   -0.140483
    41  C    0.036564
    42  C    0.085752
    43  C   -0.133585
    44  C   -0.121953
    45  H    0.125431
    46  C   -0.166474
    47  C   -0.142955
    48  H    0.120503
    49  H    0.122089
    50  H    0.110786
    51  H    0.119298
    52  H    0.116508
    53  H    0.120167
    54  C   -0.125326
    55  C   -0.114202
    56  C    0.159811
    57  C   -0.168344
    58  C   -0.111594
    59  C   -0.116546
    60  H    0.110070
    61  C   -0.114700
    62  H    0.128132
    63  C   -0.136769
    64  H    0.121687
    65  H    0.122144
    66  H    0.120792
    67  H    0.111817
    68  H    0.113834
    69  C   -0.366509
    70  H    0.101020
    71  H    0.131129
    72  H    0.098871
 Sum of Mulliken charges =   0.00000

 Dipole moment (field-independent basis, Debye):
    X=              0.7654    Y=             -2.4911    Z=             -1.6291  Tot=              3.0733
 Quadrupole moment (field-independent basis, Debye-Ang):
   XX=           -204.1692   YY=           -219.1488   ZZ=           -227.6084
   XY=              6.8128   XZ=              4.0475   YZ=             12.2444

 Normal termination of Gaussian 09 at Thu Mar 30 04:43:38 2017.
