 Gaussian 09, Revision D.01,
 Gaussian 09:  EM64L-G09RevD.01 24-Apr-2013

 ----------------------------------------------------------------------
 #p b3lyp cc-pVTZ empiricaldispersion=gd3bj scrf=(pcm,solvent=diethylet
 her)
 ----------------------------------------------------------------------

 -----
 title
 -----
 Symbolic Z-matrix:
 Charge =  0 Multiplicity = 1

                         Standard orientation:
 ---------------------------------------------------------------------
 Center     Atomic      Atomic             Coordinates (Angstroms)
 Number     Number       Type             X           Y           Z
 ---------------------------------------------------------------------
      1         16           0       -1.820931    1.296687   -0.495391
      2          8           0        0.028182   -3.210627    1.380171
      3          7           0        1.404192   -2.488223   -0.261393
      4          7           0       -1.462812   -0.921921    0.983281
      5          1           0       -1.831559   -1.754641    1.431245
      6          7           0       -3.618489   -0.503661    0.427341
      7          1           0       -3.767451   -1.450104    0.758464
      8          6           0        1.713256   -1.629430   -1.460504
      9          6           0        2.617241   -2.578769   -2.318289
     10          1           0        3.461491   -2.035221   -2.747542
     11          1           0        2.023045   -2.970020   -3.149731
     12          6           0        3.042770   -3.733496   -1.403003
     13          1           0        3.951707   -3.487122   -0.845178
     14          1           0        3.235627   -4.655750   -1.957654
     15          6           0        1.863911   -3.873313   -0.447527
     16          1           0        2.120743   -4.306407    0.520617
     17          1           0        1.060637   -4.484727   -0.880887
     18          6           0        0.478667   -2.271070    0.709253
     19          6           0       -0.006245   -0.850568    1.029623
     20          1           0        0.309959   -0.132934    0.281124
     21          6           0       -2.314511   -0.090841    0.341826
     22          6           0        0.510432   -0.349544    2.426333
     23          6           0        0.237438    1.161447    2.517205
     24          1           0       -0.828736    1.382810    2.412596
     25          1           0        0.572322    1.541040    3.489860
     26          1           0        0.770090    1.708869    1.732684
     27          6           0       -0.201369   -1.062386    3.588233
     28          1           0       -0.054076   -2.143803    3.543960
     29          1           0        0.197857   -0.693098    4.539587
     30          1           0       -1.277524   -0.857599    3.582458
     31          6           0        2.024079   -0.589834    2.538789
     32          1           0        2.572854   -0.086634    1.740491
     33          1           0        2.385990   -0.196725    3.495630
     34          1           0        2.270838   -1.656769    2.504195
     35          6           0        2.785925    4.465143   -0.498333
     36          6           0        2.085815    3.354098   -0.913520
     37          6           0        2.654301    2.058091   -0.800726
     38          6           0        3.964330    1.920846   -0.245014
     39          6           0        4.663722    3.084218    0.167565
     40          6           0        4.087476    4.329365    0.043934
     41          1           0        0.956005    1.036415   -1.624452
     42          1           0        2.340920    5.452186   -0.584140
     43          1           0        1.084737    3.450013   -1.325157
     44          6           0        1.949105    0.895869   -1.213696
     45          6           0        4.505780    0.613499   -0.118748
     46          1           0        5.660399    2.975090    0.587584
     47          1           0        4.629126    5.214173    0.365793
     48          6           0        3.783403   -0.489890   -0.501423
     49          6           0        2.478158   -0.367189   -1.058420
     50          1           0        5.499474    0.495848    0.305870
     51          1           0        4.210505   -1.475723   -0.357266
     52          6           0       -4.784172    0.129123   -0.073638
     53          6           0       -5.733657   -0.665189   -0.725703
     54          6           0       -5.037570    1.489581    0.134137
     55          6           0       -6.926575   -0.101518   -1.177075
     56          1           0       -5.531159   -1.721053   -0.884290
     57          6           0       -6.224534    2.047630   -0.336349
     58          1           0       -4.310576    2.096562    0.657414
     59          6           0       -7.173356    1.259200   -0.991812
     60          1           0       -7.656623   -0.727445   -1.681830
     61          1           0       -6.412833    3.105348   -0.176719
     62          1           0       -8.098051    1.701253   -1.350542
     63          6           0        0.422659   -1.344058   -2.243060
     64          1           0       -0.073822   -2.293449   -2.466195
     65          1           0       -0.282862   -0.708038   -1.705465
     66          1           0        0.661292   -0.853775   -3.192585
 ---------------------------------------------------------------------

 SCF Done:  E(RB3LYP) =  -1725.23425225     A.U. after   13 cycles

 The electronic state is 1-A.
 Alpha  occ. eigenvalues --  -88.83213 -19.10139 -14.36728 -14.36056 -14.35437
 Alpha  occ. eigenvalues --  -10.30127 -10.28078 -10.24203 -10.22964 -10.22439
 Alpha  occ. eigenvalues --  -10.20928 -10.19388 -10.19334 -10.19225 -10.19173
 Alpha  occ. eigenvalues --  -10.18539 -10.18444 -10.18434 -10.18326 -10.18320
 Alpha  occ. eigenvalues --  -10.18301 -10.18295 -10.18260 -10.18212 -10.18195
 Alpha  occ. eigenvalues --  -10.18150 -10.18141 -10.18043 -10.18040 -10.16821
 Alpha  occ. eigenvalues --  -10.15673 -10.15500 -10.15402  -7.88565  -5.85057
 Alpha  occ. eigenvalues --   -5.84492  -5.84187  -1.04680  -1.00283  -0.95052
 Alpha  occ. eigenvalues --   -0.93245  -0.88123  -0.85642  -0.83511  -0.82265
 Alpha  occ. eigenvalues --   -0.80252  -0.78873  -0.77332  -0.76511  -0.75416
 Alpha  occ. eigenvalues --   -0.74194  -0.73064  -0.72113  -0.71335  -0.68649
 Alpha  occ. eigenvalues --   -0.68329  -0.68108  -0.64866  -0.62977  -0.62365
 Alpha  occ. eigenvalues --   -0.62068  -0.61448  -0.60099  -0.59805  -0.58517
 Alpha  occ. eigenvalues --   -0.56793  -0.55119  -0.54554  -0.53797  -0.52180
 Alpha  occ. eigenvalues --   -0.51325  -0.51180  -0.49790  -0.49111  -0.48056
 Alpha  occ. eigenvalues --   -0.47647  -0.47088  -0.46234  -0.45442  -0.45059
 Alpha  occ. eigenvalues --   -0.44511  -0.44144  -0.43847  -0.43151  -0.43028
 Alpha  occ. eigenvalues --   -0.42883  -0.42458  -0.42117  -0.41512  -0.41400
 Alpha  occ. eigenvalues --   -0.41231  -0.40385  -0.39819  -0.39196  -0.38711
 Alpha  occ. eigenvalues --   -0.38475  -0.38227  -0.37636  -0.37190  -0.36930
 Alpha  occ. eigenvalues --   -0.36753  -0.36579  -0.36279  -0.36074  -0.35679
 Alpha  occ. eigenvalues --   -0.35407  -0.34232  -0.33853  -0.33751  -0.33161
 Alpha  occ. eigenvalues --   -0.33101  -0.32890  -0.31828  -0.29726  -0.29318
 Alpha  occ. eigenvalues --   -0.26977  -0.26419  -0.25932  -0.24699  -0.23852
 Alpha  occ. eigenvalues --   -0.22654  -0.22440  -0.21490
 Alpha virt. eigenvalues --   -0.05126  -0.03372  -0.02803  -0.01819  -0.00451
 Alpha virt. eigenvalues --    0.00845   0.01120   0.02250   0.03362   0.04574
 Alpha virt. eigenvalues --    0.04750   0.05039   0.05242   0.06208   0.06367

 Mulliken charges:
               1
     1  S   -0.442927
     2  O   -0.433572
     3  N   -0.072452
     4  N   -0.151423
     5  H    0.142340
     6  N   -0.143072
     7  H    0.146177
     8  C    0.179520
     9  C   -0.182345
    10  H    0.105468
    11  H    0.096011
    12  C   -0.193577
    13  H    0.094510
    14  H    0.107649
    15  C   -0.090767
    16  H    0.106395
    17  H    0.090716
    18  C    0.198261
    19  C    0.039860
    20  H    0.139062
    21  C    0.130388
    22  C    0.172690
    23  C   -0.321754
    24  H    0.098788
    25  H    0.089094
    26  H    0.111893
    27  C   -0.337022
    28  H    0.100329
    29  H    0.090059
    30  H    0.081819
    31  C   -0.333534
    32  H    0.114710
    33  H    0.089767
    34  H    0.091220
    35  C   -0.137108
    36  C   -0.116497
    37  C    0.076188
    38  C    0.081885
    39  C   -0.141280
    40  C   -0.137120
    41  H    0.117757
    42  H    0.121982
    43  H    0.117387
    44  C   -0.133837
    45  C   -0.144547
    46  H    0.110838
    47  H    0.120139
    48  C   -0.169527
    49  C   -0.009740
    50  H    0.107703
    51  H    0.116350
    52  C    0.159566
    53  C   -0.168471
    54  C   -0.109938
    55  C   -0.116912
    56  H    0.112249
    57  C   -0.114865
    58  H    0.128136
    59  C   -0.135255
    60  H    0.121672
    61  H    0.121978
    62  H    0.120910
    63  C   -0.341086
    64  H    0.096993
    65  H    0.126006
    66  H    0.104162
 Sum of Mulliken charges =   0.00000

 Dipole moment (field-independent basis, Debye):
    X=              1.3188    Y=             -2.8923    Z=             -0.8611  Tot=              3.2934
 Quadrupole moment (field-independent basis, Debye-Ang):
   XX=           -180.4847   YY=           -197.5983   ZZ=           -208.4647
   XY=              2.6689   XZ=              0.1521   YZ=             12.4385

 Normal termination of Gaussian 09 at Thu Mar 30 04:51:10 2017.
