 Gaussian 09, Revision D.01,
 Gaussian 09:  EM64L-G09RevD.01 24-Apr-2013

 ----------------------------------------------------------------------
 #p b3lyp cc-pVTZ empiricaldispersion=gd3bj scrf=(pcm,solvent=diethylet
 her)
 ----------------------------------------------------------------------

 -----
 title
 -----
 Symbolic Z-matrix:
 Charge =  0 Multiplicity = 1

                         Standard orientation:
 ---------------------------------------------------------------------
 Center     Atomic      Atomic             Coordinates (Angstroms)
 Number     Number       Type             X           Y           Z
 ---------------------------------------------------------------------
      1         16           0        1.740492   -1.246491   -0.909543
      2          8           0       -0.996785    2.059377    2.086323
      3          7           0       -2.166463    1.627552    0.200461
      4          7           0        0.933542    0.329618    1.115600
      5          1           0        1.127199    1.046215    1.807825
      6          7           0        3.126861    0.531049    0.589047
      7          1           0        3.074074    1.352850    1.180115
      8          6           0       -2.055046   -1.356020   -1.839439
      9          1           0       -1.072659   -1.165428   -2.253947
     10          6           0       -2.553756   -2.661723   -1.868103
     11          1           0       -1.954395   -3.450604   -2.313181
     12          6           0       -3.806029   -2.949408   -1.329711
     13          6           0       -4.557125   -1.919433   -0.757523
     14          1           0       -5.533985   -2.127970   -0.330327
     15          6           0       -4.050553   -0.622940   -0.718876
     16          1           0       -4.634447    0.157003   -0.242431
     17          6           0       -2.791364   -0.318648   -1.257751
     18          6           0       -2.276418    1.123484   -1.213047
     19          6           0       -3.330858    2.105559   -1.828159
     20          1           0       -4.034289    1.572482   -2.470789
     21          1           0       -2.806807    2.838238   -2.450077
     22          6           0       -4.005752    2.821416   -0.652269
     23          1           0       -4.852835    2.244671   -0.268149
     24          1           0       -4.377309    3.812872   -0.925041
     25          6           0       -2.898578    2.889363    0.392955
     26          1           0       -3.255988    2.951420    1.422204
     27          1           0       -2.231176    3.744974    0.222032
     28          6           0       -1.236616    1.302508    1.134593
     29          6           0       -0.479820   -0.030801    1.056811
     30          1           0       -0.648991   -0.546291    0.116936
     31          6           0        1.937297   -0.092603    0.314237
     32          6           0       -0.882515   -1.007574    2.221611
     33          6           0       -0.353138   -2.406724    1.865869
     34          1           0        0.730856   -2.398360    1.720761
     35          1           0       -0.587712   -3.110536    2.673279
     36          1           0       -0.810398   -2.777735    0.942336
     37          6           0       -0.285095   -0.566488    3.568210
     38          1           0       -0.609929    0.441583    3.835793
     39          1           0       -0.608609   -1.258880    4.353561
     40          1           0        0.809907   -0.585169    3.544040
     41          6           0       -2.412865   -1.068432    2.346013
     42          1           0       -2.880058   -1.381358    1.410039
     43          1           0       -2.687861   -1.793850    3.120139
     44          1           0       -2.833753   -0.099204    2.634700
     45          1           0       -4.194452   -3.963436   -1.352669
     46          6           0        4.398113    0.324216   -0.002038
     47          6           0        5.164410    1.452395   -0.315262
     48          6           0        4.928352   -0.955450   -0.201054
     49          6           0        6.450348    1.303757   -0.833280
     50          1           0        4.747063    2.443619   -0.158692
     51          6           0        6.207676   -1.093868   -0.735899
     52          1           0        4.341337   -1.825635    0.060925
     53          6           0        6.974681    0.029602   -1.053519
     54          1           0        7.036034    2.186622   -1.072199
     55          1           0        6.611347   -2.090012   -0.892426
     56          1           0        7.972813   -0.087864   -1.464686
     57          6           0       -0.940944    1.323274   -1.944933
     58          1           0       -0.626872    2.365301   -1.830999
     59          1           0       -0.140221    0.680569   -1.575194
     60          1           0       -1.065512    1.122461   -3.014143
 ---------------------------------------------------------------------

 SCF Done:  E(RB3LYP) =  -1571.52171072     A.U. after   13 cycles

 The electronic state is 1-A.
 Alpha  occ. eigenvalues --  -88.83226 -19.10106 -14.36755 -14.36096 -14.35426
 Alpha  occ. eigenvalues --  -10.30140 -10.28067 -10.24156 -10.22974 -10.22539
 Alpha  occ. eigenvalues --  -10.20936 -10.19411 -10.19280 -10.18528 -10.18434
 Alpha  occ. eigenvalues --  -10.18312 -10.18282 -10.18267 -10.18221 -10.18189
 Alpha  occ. eigenvalues --  -10.18168 -10.18164 -10.18118 -10.18014 -10.17992
 Alpha  occ. eigenvalues --  -10.16776 -10.15679 -10.15517 -10.15459  -7.88577
 Alpha  occ. eigenvalues --   -5.85068  -5.84505  -5.84198  -1.04661  -1.00303
 Alpha  occ. eigenvalues --   -0.95075  -0.93265  -0.86363  -0.85631  -0.82286
 Alpha  occ. eigenvalues --   -0.80659  -0.78887  -0.76557  -0.75405  -0.75213
 Alpha  occ. eigenvalues --   -0.73740  -0.73066  -0.71337  -0.68555  -0.68328
 Alpha  occ. eigenvalues --   -0.68141  -0.64569  -0.62673  -0.62024  -0.61093
 Alpha  occ. eigenvalues --   -0.60750  -0.59484  -0.58510  -0.56759  -0.55030
 Alpha  occ. eigenvalues --   -0.54540  -0.53942  -0.51994  -0.50428  -0.49448
 Alpha  occ. eigenvalues --   -0.49057  -0.48006  -0.47269  -0.46232  -0.46115
 Alpha  occ. eigenvalues --   -0.45504  -0.45007  -0.44202  -0.44074  -0.43445
 Alpha  occ. eigenvalues --   -0.43113  -0.42880  -0.42247  -0.42021  -0.41599
 Alpha  occ. eigenvalues --   -0.41290  -0.40381  -0.39204  -0.38798  -0.38433
 Alpha  occ. eigenvalues --   -0.38206  -0.38070  -0.37392  -0.37276  -0.36858
 Alpha  occ. eigenvalues --   -0.36722  -0.36262  -0.35802  -0.35716  -0.35417
 Alpha  occ. eigenvalues --   -0.34940  -0.33787  -0.33432  -0.33410  -0.32931
 Alpha  occ. eigenvalues --   -0.32358  -0.29731  -0.26996  -0.26415  -0.26288
 Alpha  occ. eigenvalues --   -0.26088  -0.24870  -0.23772  -0.22466  -0.21492
 Alpha virt. eigenvalues --   -0.03389  -0.02426  -0.01885  -0.01705  -0.00388
 Alpha virt. eigenvalues --    0.00924   0.02253   0.03348   0.04589   0.04781
 Alpha virt. eigenvalues --    0.05247   0.05407   0.06872   0.07112   0.07323

 Mulliken charges:
               1
     1  S   -0.441308
     2  O   -0.435059
     3  N   -0.068460
     4  N   -0.148917
     5  H    0.142735
     6  N   -0.142037
     7  H    0.145730
     8  C   -0.096331
     9  H    0.124809
    10  C   -0.136045
    11  H    0.122689
    12  C   -0.124477
    13  C   -0.125472
    14  H    0.117915
    15  C   -0.143164
    16  H    0.117814
    17  C    0.004505
    18  C    0.167958
    19  C   -0.174059
    20  H    0.104957
    21  H    0.095088
    22  C   -0.195440
    23  H    0.093983
    24  H    0.107592
    25  C   -0.091558
    26  H    0.106639
    27  H    0.091336
    28  C    0.199885
    29  C    0.036883
    30  H    0.139268
    31  C    0.129551
    32  C    0.174082
    33  C   -0.315186
    34  H    0.099551
    35  H    0.088638
    36  H    0.100636
    37  C   -0.337449
    38  H    0.100564
    39  H    0.089871
    40  H    0.083041
    41  C   -0.338217
    42  H    0.118229
    43  H    0.088702
    44  H    0.092266
    45  H    0.123359
    46  C    0.160526
    47  C   -0.168948
    48  C   -0.110816
    49  C   -0.116461
    50  H    0.111353
    51  C   -0.114953
    52  H    0.127396
    53  C   -0.135955
    54  H    0.121606
    55  H    0.121962
    56  H    0.120776
    57  C   -0.339444
    58  H    0.096969
    59  H    0.127623
    60  H    0.103266
 Sum of Mulliken charges =   0.00000

 Dipole moment (field-independent basis, Debye):
    X=             -2.0207    Y=              2.8924    Z=             -0.1773  Tot=              3.5328
 Quadrupole moment (field-independent basis, Debye-Ang):
   XX=           -161.1690   YY=           -174.3341   ZZ=           -190.4381
   XY=              5.4137   XZ=              5.9883   YZ=             -7.1626

 Normal termination of Gaussian 09 at Thu Mar 30 02:50:38 2017.
