 Gaussian 09, Revision D.01,
 Gaussian 09:  EM64L-G09RevD.01 24-Apr-2013

 ----------------------------------------------------------------------
 #p b3lyp cc-pVTZ empiricaldispersion=gd3bj scrf=(pcm,solvent=diethylet
 her)
 ----------------------------------------------------------------------

 -----
 title
 -----
 Symbolic Z-matrix:
 Charge =  0 Multiplicity = 1

                         Standard orientation:
 ---------------------------------------------------------------------
 Center     Atomic      Atomic             Coordinates (Angstroms)
 Number     Number       Type             X           Y           Z
 ---------------------------------------------------------------------
      1         16           0        1.807285    1.020772   -1.172803
      2          8           0       -0.136649   -3.333976    1.312031
      3          7           0       -1.551362   -1.585217    1.456635
      4          7           0        1.554687   -1.343924    0.088671
      5          1           0        1.939982   -2.049804    0.706564
      6          7           0        3.582268   -0.370682    0.326718
      7          1           0        3.853954   -1.290814    0.653986
      8          6           0       -1.851422   -0.113278    1.470489
      9          6           0       -2.716861    0.002928    2.761116
     10          1           0       -3.410451    0.843734    2.700861
     11          1           0       -2.054057    0.168112    3.618970
     12          6           0       -3.402914   -1.354169    2.892174
     13          1           0       -4.232787   -1.435737    2.182165
     14          1           0       -3.790570   -1.543371    3.896468
     15          6           0       -2.279465   -2.312643    2.513565
     16          1           0       -2.619440   -3.277560    2.129238
     17          1           0       -1.612408   -2.510731    3.361866
     18          6           0       -0.510208   -2.238556    0.872806
     19          6           0        0.200541   -1.654545   -0.364939
     20          1           0       -0.264521   -0.726014   -0.691200
     21          6           0        2.327074   -0.274507   -0.220394
     22          6           0        0.209776   -2.661503   -1.578153
     23          6           0        0.648478   -1.896371   -2.838965
     24          1           0        1.656488   -1.487575   -2.733392
     25          1           0        0.643002   -2.575843   -3.699568
     26          1           0       -0.027168   -1.062520   -3.055012
     27          6           0        1.186270   -3.829398   -1.350836
     28          1           0        0.911031   -4.417544   -0.474201
     29          1           0        1.178114   -4.482147   -2.231150
     30          1           0        2.212641   -3.468329   -1.222711
     31          6           0       -1.199755   -3.225695   -1.820787
     32          1           0       -1.903679   -2.434927   -2.092089
     33          1           0       -1.167032   -3.938117   -2.652664
     34          1           0       -1.584488   -3.757907   -0.944745
     35          6           0       -2.691194    0.290805    0.242916
     36          6           0       -3.018307    1.661149   -0.059534
     37          6           0       -3.202954   -0.699368   -0.571192
     38          6           0       -2.688440    2.771504    0.768084
     39          6           0       -3.765614    1.943352   -1.256747
     40          6           0       -3.958626   -0.418803   -1.731930
     41          1           0       -3.004473   -1.731257   -0.319173
     42          6           0       -3.022386    4.062464    0.421669
     43          1           0       -2.181812    2.612982    1.707679
     44          6           0       -4.078640    3.286500   -1.594911
     45          6           0       -4.213245    0.880952   -2.084384
     46          1           0       -4.321248   -1.240934   -2.342126
     47          6           0       -3.711914    4.331618   -0.780655
     48          1           0       -2.754545    4.879781    1.085005
     49          1           0       -4.630148    3.469242   -2.513552
     50          1           0       -4.774474    1.118956   -2.983962
     51          1           0       -3.961301    5.353925   -1.049022
     52          6           0        4.644420    0.565723    0.293621
     53          6           0        5.937115    0.078814    0.068117
     54          6           0        4.448399    1.926640    0.554853
     55          6           0        7.027145    0.947517    0.093342
     56          1           0        6.083587   -0.979116   -0.133898
     57          6           0        5.542500    2.789687    0.560759
     58          1           0        3.450444    2.297253    0.747533
     59          6           0        6.833814    2.308729    0.331815
     60          1           0        8.025426    0.557940   -0.083304
     61          1           0        5.382640    3.845671    0.758506
     62          1           0        7.680849    2.988057    0.343139
     63          6           0       -0.535281    0.679014    1.639339
     64          1           0        0.172822    0.073035    2.211001
     65          1           0       -0.075786    0.951930    0.689050
     66          1           0       -0.692927    1.596485    2.206761
 ---------------------------------------------------------------------

 SCF Done:  E(RB3LYP) =  -1725.22032618     A.U. after   13 cycles

 The electronic state is 1-A.
 Alpha  occ. eigenvalues --  -88.83251 -19.10209 -14.36802 -14.36311 -14.35343
 Alpha  occ. eigenvalues --  -10.30144 -10.28254 -10.24411 -10.23006 -10.22971
 Alpha  occ. eigenvalues --  -10.20923 -10.19812 -10.19668 -10.19556 -10.19352
 Alpha  occ. eigenvalues --  -10.18542 -10.18444 -10.18337 -10.18294 -10.18282
 Alpha  occ. eigenvalues --  -10.18268 -10.18224 -10.18186 -10.18164 -10.18156
 Alpha  occ. eigenvalues --  -10.18120 -10.18009 -10.17971 -10.17904 -10.16621
 Alpha  occ. eigenvalues --  -10.16044 -10.15479 -10.15465  -7.88602  -5.85088
 Alpha  occ. eigenvalues --   -5.84536  -5.84222  -1.04793  -1.00394  -0.95178
 Alpha  occ. eigenvalues --   -0.93341  -0.88055  -0.85640  -0.82962  -0.82256
 Alpha  occ. eigenvalues --   -0.80942  -0.79211  -0.76728  -0.76022  -0.75417
 Alpha  occ. eigenvalues --   -0.74671  -0.73148  -0.72571  -0.71337  -0.68618
 Alpha  occ. eigenvalues --   -0.68225  -0.68034  -0.64631  -0.63154  -0.62494
 Alpha  occ. eigenvalues --   -0.62142  -0.61826  -0.60368  -0.59493  -0.58667
 Alpha  occ. eigenvalues --   -0.56743  -0.55020  -0.54403  -0.53399  -0.52091
 Alpha  occ. eigenvalues --   -0.51454  -0.50615  -0.50080  -0.49203  -0.48888
 Alpha  occ. eigenvalues --   -0.47936  -0.47501  -0.46095  -0.45688  -0.45032
 Alpha  occ. eigenvalues --   -0.44728  -0.44190  -0.43757  -0.43336  -0.42903
 Alpha  occ. eigenvalues --   -0.42718  -0.42415  -0.42303  -0.41621  -0.41339
 Alpha  occ. eigenvalues --   -0.40741  -0.40307  -0.39987  -0.39100  -0.38850
 Alpha  occ. eigenvalues --   -0.38533  -0.38106  -0.37941  -0.37472  -0.37092
 Alpha  occ. eigenvalues --   -0.36783  -0.36457  -0.36157  -0.35737  -0.35469
 Alpha  occ. eigenvalues --   -0.34853  -0.34671  -0.34335  -0.34111  -0.33435
 Alpha  occ. eigenvalues --   -0.33073  -0.32666  -0.32398  -0.29737  -0.28829
 Alpha  occ. eigenvalues --   -0.26806  -0.26439  -0.25547  -0.25329  -0.23813
 Alpha  occ. eigenvalues --   -0.22552  -0.22331  -0.21521
 Alpha virt. eigenvalues --   -0.05323  -0.03598  -0.02542  -0.01819  -0.00554
 Alpha virt. eigenvalues --    0.00795   0.01191   0.01904   0.03366   0.04504
 Alpha virt. eigenvalues --    0.04687   0.04867   0.05476   0.06407   0.06532

 Mulliken charges:
               1
     1  S   -0.417912
     2  O   -0.420884
     3  N   -0.104821
     4  N   -0.151055
     5  H    0.141166
     6  N   -0.139397
     7  H    0.144859
     8  C    0.153334
     9  C   -0.157227
    10  H    0.106992
    11  H    0.090215
    12  C   -0.185321
    13  H    0.093683
    14  H    0.107885
    15  C   -0.105510
    16  H    0.107945
    17  H    0.099319
    18  C    0.159515
    19  C    0.071194
    20  H    0.142134
    21  C    0.122509
    22  C    0.170515
    23  C   -0.307273
    24  H    0.101005
    25  H    0.088318
    26  H    0.095890
    27  C   -0.335122
    28  H    0.105271
    29  H    0.089711
    30  H    0.078706
    31  C   -0.346483
    32  H    0.105386
    33  H    0.093193
    34  H    0.097008
    35  C    0.028359
    36  C    0.070137
    37  C   -0.172477
    38  C   -0.113700
    39  C    0.099925
    40  C   -0.151008
    41  H    0.131431
    42  C   -0.170792
    43  H    0.114218
    44  C   -0.130017
    45  C   -0.156816
    46  H    0.118350
    47  C   -0.138288
    48  H    0.117614
    49  H    0.110537
    50  H    0.111591
    51  H    0.120989
    52  C    0.158616
    53  C   -0.167688
    54  C   -0.112936
    55  C   -0.116730
    56  H    0.110631
    57  C   -0.114515
    58  H    0.127005
    59  C   -0.136171
    60  H    0.121743
    61  H    0.121729
    62  H    0.120720
    63  C   -0.340438
    64  H    0.101148
    65  H    0.137133
    66  H    0.104952
 Sum of Mulliken charges =   0.00000

 Dipole moment (field-independent basis, Debye):
    X=             -1.1963    Y=             -0.6400    Z=              3.0888  Tot=              3.3737
 Quadrupole moment (field-independent basis, Debye-Ang):
   XX=           -183.8478   YY=           -204.1990   ZZ=           -201.8372
   XY=             -7.4811   XZ=              6.1042   YZ=              7.5287

 Normal termination of Gaussian 09 at Thu Mar 30 04:51:15 2017.
