 Gaussian 09, Revision D.01,
 Gaussian 09:  EM64L-G09RevD.01 24-Apr-2013

 ----------------------------------------------------------------------
 #p b3lyp cc-pVTZ empiricaldispersion=gd3bj scrf=(pcm,solvent=diethylet
 her)
 ----------------------------------------------------------------------

 -----
 title
 -----
 Symbolic Z-matrix:
 Charge =  0 Multiplicity = 1

                         Standard orientation:
 ---------------------------------------------------------------------
 Center     Atomic      Atomic             Coordinates (Angstroms)
 Number     Number       Type             X           Y           Z
 ---------------------------------------------------------------------
      1         16           0       -1.527974   -0.195432    1.477155
      2          8           0        1.001290    0.325453   -2.934023
      3          7           0        1.785549    1.327077   -1.063926
      4          7           0       -0.918398   -0.719584   -1.089954
      5          1           0       -1.173525   -0.709310   -2.071478
      6          7           0       -3.098120   -0.204029   -0.726232
      7          1           0       -3.136651   -0.142065   -1.737464
      8          6           0        2.464054    0.028143    2.288375
      9          1           0        1.450275    0.145799    2.661874
     10          6           0        3.368755   -0.790665    2.967252
     11          1           0        3.058629   -1.299231    3.875679
     12          6           0        4.662546   -0.961973    2.473665
     13          6           0        5.043067   -0.315654    1.294716
     14          1           0        6.044488   -0.454063    0.896913
     15          6           0        4.135090    0.494376    0.614749
     16          1           0        4.427795    0.954897   -0.323177
     17          6           0        2.837870    0.680632    1.108643
     18          6           0        1.826026    1.559250    0.398674
     19          1           0        0.840147    1.360343    0.825777
     20          6           0        2.131163    3.073422    0.482941
     21          1           0        2.657440    3.328376    1.405557
     22          1           0        1.185260    3.626055    0.466067
     23          6           0        2.939175    3.376131   -0.786995
     24          1           0        3.992551    3.116851   -0.642356
     25          1           0        2.894550    4.429744   -1.074592
     26          6           0        2.300667    2.466284   -1.841579
     27          1           0        3.002289    2.116294   -2.603365
     28          1           0        1.469143    2.957999   -2.361063
     29          6           0        1.140954    0.324659   -1.703878
     30          6           0        0.520502   -0.798488   -0.857939
     31          1           0        0.668446   -0.618494    0.202763
     32          6           0       -1.859130   -0.381559   -0.174878
     33          6           0        1.079001   -2.222115   -1.171008
     34          6           0        0.512962   -3.180095   -0.108718
     35          1           0       -0.581797   -3.186570   -0.124246
     36          1           0        0.862486   -4.201589   -0.297827
     37          1           0        0.834836   -2.888060    0.896895
     38          6           0        0.672653   -2.714987   -2.569734
     39          1           0        1.030309   -2.039564   -3.349319
     40          1           0        1.095805   -3.710974   -2.743108
     41          1           0       -0.416132   -2.804563   -2.661101
     42          6           0        2.611592   -2.195873   -1.060365
     43          1           0        2.936577   -1.892470   -0.061701
     44          1           0        3.012327   -3.196649   -1.257437
     45          1           0        3.058024   -1.509419   -1.788159
     46          1           0        5.367303   -1.601609    2.997168
     47          6           0       -4.326906    0.084775   -0.078623
     48          6           0       -5.151496    1.061969   -0.646185
     49          6           0       -4.758751   -0.626875    1.045812
     50          6           0       -6.399057    1.335015   -0.086344
     51          1           0       -4.809187    1.610274   -1.519766
     52          6           0       -5.999454   -0.334502    1.608871
     53          1           0       -4.126763   -1.396741    1.468684
     54          6           0       -6.824476    0.643668    1.048575
     55          1           0       -7.031836    2.095377   -0.534550
     56          1           0       -6.327470   -0.886172    2.485041
     57          1           0       -7.792121    0.861360    1.490607
 ---------------------------------------------------------------------

 SCF Done:  E(RB3LYP) =  -1532.19417609     A.U. after   13 cycles

 The electronic state is 1-A.
 Alpha  occ. eigenvalues --  -88.83483 -19.09809 -14.36983 -14.36257 -14.35453
 Alpha  occ. eigenvalues --  -10.30325 -10.27785 -10.23082 -10.22429 -10.22337
 Alpha  occ. eigenvalues --  -10.21071 -10.19471 -10.19035 -10.18652 -10.18542
 Alpha  occ. eigenvalues --  -10.18397 -10.18340 -10.18316 -10.18287 -10.18276
 Alpha  occ. eigenvalues --  -10.18210 -10.18199 -10.18169 -10.18150 -10.18058
 Alpha  occ. eigenvalues --  -10.15832 -10.15780 -10.15645  -7.88828  -5.85320
 Alpha  occ. eigenvalues --   -5.84755  -5.84454  -1.04356  -1.00479  -0.95140
 Alpha  occ. eigenvalues --   -0.93470  -0.86265  -0.85774  -0.82429  -0.80221
 Alpha  occ. eigenvalues --   -0.77922  -0.76550  -0.75521  -0.75145  -0.73156
 Alpha  occ. eigenvalues --   -0.72616  -0.71019  -0.68529  -0.68386  -0.65312
 Alpha  occ. eigenvalues --   -0.62848  -0.62151  -0.61464  -0.60996  -0.59230
 Alpha  occ. eigenvalues --   -0.58513  -0.56940  -0.55982  -0.54813  -0.53936
 Alpha  occ. eigenvalues --   -0.52313  -0.51105  -0.49298  -0.49168  -0.48090
 Alpha  occ. eigenvalues --   -0.46731  -0.46643  -0.46336  -0.45730  -0.44893
 Alpha  occ. eigenvalues --   -0.44228  -0.43336  -0.43053  -0.42808  -0.42532
 Alpha  occ. eigenvalues --   -0.42396  -0.42012  -0.41579  -0.41012  -0.39839
 Alpha  occ. eigenvalues --   -0.38791  -0.38716  -0.38245  -0.37676  -0.37284
 Alpha  occ. eigenvalues --   -0.37025  -0.36856  -0.36210  -0.35999  -0.35933
 Alpha  occ. eigenvalues --   -0.35572  -0.35343  -0.34499  -0.33696  -0.33317
 Alpha  occ. eigenvalues --   -0.33050  -0.32658  -0.29987  -0.26763  -0.26455
 Alpha  occ. eigenvalues --   -0.26387  -0.26083  -0.24808  -0.23991  -0.22767
 Alpha  occ. eigenvalues --   -0.21691
 Alpha virt. eigenvalues --   -0.03608  -0.02196  -0.01953  -0.01784  -0.00293
 Alpha virt. eigenvalues --    0.01045   0.02108   0.03353   0.04601   0.04682
 Alpha virt. eigenvalues --    0.05142   0.05641   0.07163   0.07296   0.07479

 Mulliken charges:
               1
     1  S   -0.447001
     2  O   -0.436840
     3  N   -0.049556
     4  N   -0.164932
     5  H    0.142549
     6  N   -0.135224
     7  H    0.146768
     8  C   -0.122124
     9  H    0.129959
    10  C   -0.117097
    11  H    0.122394
    12  C   -0.129924
    13  C   -0.130107
    14  H    0.118475
    15  C   -0.142961
    16  H    0.114514
    17  C    0.040090
    18  C   -0.031871
    19  H    0.130659
    20  C   -0.150593
    21  H    0.099822
    22  H    0.099521
    23  C   -0.196689
    24  H    0.094966
    25  H    0.107717
    26  C   -0.105505
    27  H    0.105632
    28  H    0.099144
    29  C    0.183524
    30  C    0.036119
    31  H    0.157134
    32  C    0.137225
    33  C    0.176718
    34  C   -0.321137
    35  H    0.097290
    36  H    0.091947
    37  H    0.096694
    38  C   -0.332550
    39  H    0.102177
    40  H    0.089999
    41  H    0.078463
    42  C   -0.328420
    43  H    0.110924
    44  H    0.091630
    45  H    0.091289
    46  H    0.122314
    47  C    0.161490
    48  C   -0.167622
    49  C   -0.108279
    50  C   -0.116320
    51  H    0.113161
    52  C   -0.114744
    53  H    0.127269
    54  C   -0.134274
    55  H    0.122208
    56  H    0.122522
    57  H    0.121461
 Sum of Mulliken charges =   0.00000

 Dipole moment (field-independent basis, Debye):
    X=              0.5510    Y=              1.5004    Z=             -1.4204  Tot=              2.1384
 Quadrupole moment (field-independent basis, Debye-Ang):
   XX=           -154.3372   YY=           -167.4683   ZZ=           -183.8784
   XY=             -0.1148   XZ=              9.9073   YZ=             -4.9076

 Normal termination of Gaussian 09 at Thu Mar 30 04:23:38 2017.
