 Gaussian 09, Revision D.01,
 Gaussian 09:  EM64L-G09RevD.01 24-Apr-2013

 ----------------------------------------------------------------------
 #p b3lyp cc-pVTZ empiricaldispersion=gd3bj scrf=(pcm,solvent=diethylet
 her)
 ----------------------------------------------------------------------

 -----
 title
 -----
 Symbolic Z-matrix:
 Charge =  0 Multiplicity = 1

                         Standard orientation:
 ---------------------------------------------------------------------
 Center     Atomic      Atomic             Coordinates (Angstroms)
 Number     Number       Type             X           Y           Z
 ---------------------------------------------------------------------
      1         16           0       -2.520347    1.207525   -0.730554
      2          8           0       -0.913036   -3.012986    1.481212
      3          7           0        0.051384   -2.332094   -0.452969
      4          7           0       -2.235208   -0.539422    1.297359
      5          1           0       -2.637098   -1.250963    1.898375
      6          7           0       -4.384866   -0.129923    0.700717
      7          1           0       -4.583879   -0.923835    1.298857
      8          6           0        0.416389   -1.319176   -1.484365
      9          1           0       -0.466241   -0.699186   -1.671889
     10          6           0        0.690116   -2.177079   -2.741385
     11          1           0        1.752855   -2.426678   -2.807001
     12          1           0        0.423554   -1.624757   -3.645803
     13          6           0       -0.150975   -3.440476   -2.525580
     14          1           0        0.196108   -4.291428   -3.117876
     15          1           0       -1.197616   -3.247328   -2.786136
     16          6           0       -0.033672   -3.689727   -1.019764
     17          1           0        0.862925   -4.272268   -0.771529
     18          1           0       -0.889564   -4.205388   -0.582450
     19          6           0       -0.518030   -2.091406    0.755197
     20          6           0       -0.782116   -0.636739    1.179557
     21          1           0       -0.490779    0.061231    0.401798
     22          6           0       -3.064615    0.139538    0.468107
     23          6           0       -0.078691   -0.199860    2.503357
     24          6           0       -0.281655    1.318271    2.648241
     25          1           0       -1.345989    1.574026    2.679213
     26          1           0        0.181919    1.674883    3.575089
     27          1           0        0.172546    1.858025    1.809661
     28          6           0       -0.660165   -0.913285    3.736182
     29          1           0       -0.565554   -1.997983    3.651554
     30          1           0       -0.124940   -0.582519    4.633385
     31          1           0       -1.718399   -0.666994    3.881769
     32          6           0        1.424616   -0.499980    2.407172
     33          1           0        1.890620    0.055957    1.591562
     34          1           0        1.919856   -0.204411    3.338743
     35          1           0        1.618799   -1.566089    2.248544
     36          6           0        3.009942    4.264274   -0.719852
     37          6           0        2.028100    3.324294   -1.027589
     38          6           0        2.300806    1.950955   -0.929297
     39          6           0        3.590298    1.521270   -0.505130
     40          6           0        4.277260    3.854654   -0.308683
     41          6           0        1.314494    0.957575   -1.229124
     42          6           0        3.865811    0.127004   -0.384403
     43          6           0        2.857242   -0.847056   -0.681062
     44          6           0        1.551179   -0.382924   -1.114696
     45          6           0        3.177577   -2.203151   -0.502806
     46          1           0        2.432833   -2.961935   -0.688641
     47          6           0        4.440907   -2.600500   -0.068049
     48          6           0        5.426127   -1.659507    0.208773
     49          1           0        0.327266    1.298853   -1.528425
     50          1           0        2.785675    5.323921   -0.799468
     51          1           0        1.039527    3.644943   -1.344251
     52          1           0        5.038353    4.592554   -0.069426
     53          1           0        4.651368   -3.658441    0.058617
     54          1           0        6.408875   -1.974362    0.549063
     55          6           0        4.590066    2.490969   -0.191673
     56          6           0        5.158252   -0.290785    0.061704
     57          6           0        5.881179    2.034307    0.239016
     58          1           0        6.640941    2.775402    0.472562
     59          6           0        6.149769    0.705919    0.359224
     60          1           0        7.128364    0.369435    0.691377
     61          6           0       -5.532870    0.446930    0.099837
     62          6           0       -6.579428   -0.407663   -0.262978
     63          6           0       -5.671712    1.829687   -0.061629
     64          6           0       -7.757232    0.116332   -0.794390
     65          1           0       -6.464328   -1.480707   -0.134477
     66          6           0       -6.845811    2.342430   -0.609806
     67          1           0       -4.867768    2.488085    0.239808
     68          6           0       -7.892079    1.493063   -0.977536
     69          1           0       -8.563926   -0.555491   -1.072486
     70          1           0       -6.946451    3.416330   -0.737306
     71          1           0       -8.805649    1.901733   -1.398825
 ---------------------------------------------------------------------

 SCF Done:  E(RB3LYP) =  -1915.88136804     A.U. after   13 cycles

 The electronic state is 1-A.
 Alpha  occ. eigenvalues --  -88.83526 -19.09884 -14.37022 -14.36218 -14.35586
 Alpha  occ. eigenvalues --  -10.30345 -10.27954 -10.23107 -10.22709 -10.22336
 Alpha  occ. eigenvalues --  -10.21067 -10.19820 -10.19633 -10.19606 -10.19525
 Alpha  occ. eigenvalues --  -10.19490 -10.19456 -10.19403 -10.19338 -10.18665
 Alpha  occ. eigenvalues --  -10.18578 -10.18552 -10.18505 -10.18469 -10.18451
 Alpha  occ. eigenvalues --  -10.18418 -10.18406 -10.18374 -10.18366 -10.18284
 Alpha  occ. eigenvalues --  -10.18284 -10.18276 -10.18252 -10.18181 -10.18153
 Alpha  occ. eigenvalues --  -10.15759 -10.15707 -10.15670  -7.88876  -5.85366
 Alpha  occ. eigenvalues --   -5.84802  -5.84501  -1.04459  -1.00495  -0.95097
 Alpha  occ. eigenvalues --   -0.93462  -0.89995  -0.85785  -0.85768  -0.84254
 Alpha  occ. eigenvalues --   -0.82396  -0.80619  -0.80023  -0.77898  -0.76923
 Alpha  occ. eigenvalues --   -0.76548  -0.75531  -0.73935  -0.73205  -0.73118
 Alpha  occ. eigenvalues --   -0.71536  -0.70963  -0.68486  -0.68391  -0.65482
 Alpha  occ. eigenvalues --   -0.63618  -0.63371  -0.62979  -0.62538  -0.62164
 Alpha  occ. eigenvalues --   -0.61295  -0.60035  -0.58485  -0.56923  -0.56174
 Alpha  occ. eigenvalues --   -0.55044  -0.54769  -0.54274  -0.53323  -0.51938
 Alpha  occ. eigenvalues --   -0.51423  -0.51064  -0.50218  -0.49286  -0.48270
 Alpha  occ. eigenvalues --   -0.47633  -0.47448  -0.46643  -0.46330  -0.44966
 Alpha  occ. eigenvalues --   -0.44804  -0.44241  -0.44078  -0.44008  -0.43526
 Alpha  occ. eigenvalues --   -0.43048  -0.42913  -0.42669  -0.42201  -0.41683
 Alpha  occ. eigenvalues --   -0.41567  -0.41440  -0.40835  -0.40352  -0.39696
 Alpha  occ. eigenvalues --   -0.39672  -0.38562  -0.38337  -0.37861  -0.37732
 Alpha  occ. eigenvalues --   -0.37349  -0.37212  -0.37171  -0.36885  -0.36858
 Alpha  occ. eigenvalues --   -0.36565  -0.36234  -0.35867  -0.35581  -0.34612
 Alpha  occ. eigenvalues --   -0.34315  -0.33480  -0.33379  -0.33054  -0.32619
 Alpha  occ. eigenvalues --   -0.32364  -0.30615  -0.30069  -0.28357  -0.26759
 Alpha  occ. eigenvalues --   -0.26583  -0.26456  -0.25334  -0.24123  -0.24011
 Alpha  occ. eigenvalues --   -0.22820  -0.21715  -0.20944
 Alpha virt. eigenvalues --   -0.07025  -0.04088  -0.03679  -0.02179  -0.01916
 Alpha virt. eigenvalues --   -0.00421  -0.00134   0.01029   0.02032   0.03480
 Alpha virt. eigenvalues --    0.04012   0.04512   0.04636   0.05010   0.05071

 Mulliken charges:
               1
     1  S   -0.450510
     2  O   -0.436419
     3  N   -0.059701
     4  N   -0.164090
     5  H    0.140399
     6  N   -0.132473
     7  H    0.146789
     8  C   -0.014391
     9  H    0.126143
    10  C   -0.179360
    11  H    0.100730
    12  H    0.106878
    13  C   -0.165120
    14  H    0.103600
    15  H    0.095452
    16  C   -0.120802
    17  H    0.092244
    18  H    0.108152
    19  C    0.192473
    20  C    0.038043
    21  H    0.155680
    22  C    0.138430
    23  C    0.181078
    24  C   -0.330080
    25  H    0.095643
    26  H    0.092190
    27  H    0.106484
    28  C   -0.333992
    29  H    0.102856
    30  H    0.090411
    31  H    0.078106
    32  C   -0.323381
    33  H    0.101342
    34  H    0.092663
    35  H    0.094708
    36  C   -0.139021
    37  C   -0.152920
    38  C    0.107349
    39  C    0.006390
    40  C   -0.159175
    41  C   -0.181848
    42  C    0.021782
    43  C    0.073238
    44  C    0.000343
    45  C   -0.141541
    46  H    0.124046
    47  C   -0.178888
    48  C   -0.155671
    49  H    0.127030
    50  H    0.121018
    51  H    0.114826
    52  H    0.111778
    53  H    0.116284
    54  H    0.111543
    55  C    0.071580
    56  C    0.093406
    57  C   -0.155820
    58  H    0.112391
    59  C   -0.155721
    60  H    0.111604
    61  C    0.161109
    62  C   -0.168176
    63  C   -0.108135
    64  C   -0.116338
    65  H    0.113245
    66  C   -0.114884
    67  H    0.127182
    68  C   -0.134356
    69  H    0.122235
    70  H    0.122498
    71  H    0.121441
 Sum of Mulliken charges =   0.00000

 Dipole moment (field-independent basis, Debye):
    X=              0.0278    Y=             -1.7819    Z=             -0.0537  Tot=              1.7829
 Quadrupole moment (field-independent basis, Debye-Ang):
   XX=           -201.2697   YY=           -220.7664   ZZ=           -235.0200
   XY=              6.8998   XZ=              0.1909   YZ=              9.9910

 Normal termination of Gaussian 09 at Thu Mar 30 05:35:32 2017.
