 Gaussian 09, Revision D.01,
 Gaussian 09:  EM64L-G09RevD.01 24-Apr-2013

 ----------------------------------------------------------------------
 #p b3lyp cc-pVTZ empiricaldispersion=gd3bj scrf=(pcm,solvent=diethylet
 her)
 ----------------------------------------------------------------------

 -----
 title
 -----
 Symbolic Z-matrix:
 Charge =  0 Multiplicity = 1

                         Standard orientation:
 ---------------------------------------------------------------------
 Center     Atomic      Atomic             Coordinates (Angstroms)
 Number     Number       Type             X           Y           Z
 ---------------------------------------------------------------------
      1         16           0        1.773544   -1.164871   -0.778281
      2          8           0        0.200538    3.108803    1.487096
      3          7           0       -0.845433    2.416954   -0.395522
      4          7           0        1.578291    0.631123    1.216005
      5          1           0        2.007781    1.333967    1.807721
      6          7           0        3.703977    0.153886    0.582432
      7          1           0        3.937252    0.956605    1.156059
      8          6           0       -1.146199    1.427948   -1.461535
      9          1           0       -0.275510    0.784741   -1.611431
     10          6           0       -1.347007    2.327698   -2.704774
     11          1           0       -2.048759    1.882808   -3.414049
     12          1           0       -0.383867    2.447288   -3.212585
     13          6           0       -1.817289    3.680280   -2.148598
     14          1           0       -2.897818    3.673734   -1.976975
     15          1           0       -1.598078    4.510626   -2.824915
     16          6           0       -1.060766    3.808942   -0.823639
     17          1           0       -1.610497    4.358170   -0.054956
     18          1           0       -0.090521    4.304424   -0.951283
     19          6           0       -0.186494    2.181951    0.763346
     20          6           0        0.124228    0.728049    1.148534
     21          1           0       -0.191155    0.039133    0.371805
     22          6           0        2.372434   -0.086906    0.385991
     23          6           0       -0.545244    0.268469    2.483941
     24          6           0       -0.360211   -1.255121    2.588640
     25          1           0        0.699977   -1.527901    2.560895
     26          1           0       -0.782056   -1.623089    3.530954
     27          1           0       -0.864877   -1.771351    1.764405
     28          6           0        0.085608    0.945491    3.712643
     29          1           0        0.012481    2.033452    3.649257
     30          1           0       -0.430938    0.610608    4.619238
     31          1           0        1.141730    0.672919    3.821842
     32          6           0       -2.046227    0.594050    2.437899
     33          1           0       -2.539242    0.098917    1.598397
     34          1           0       -2.525988    0.250236    3.361118
     35          1           0       -2.221210    1.671899    2.351617
     36          6           0       -4.148038   -3.924920   -0.442054
     37          6           0       -3.098555   -3.108044   -0.799341
     38          6           0       -3.248676   -1.696066   -0.802519
     39          6           0       -4.508441   -1.131504   -0.423815
     40          6           0       -5.571404   -2.000133   -0.063451
     41          6           0       -5.396260   -3.366200   -0.072321
     42          1           0       -1.221745   -1.258361   -1.419972
     43          1           0       -4.022207   -5.003762   -0.441518
     44          1           0       -2.138217   -3.531380   -1.081866
     45          6           0       -2.183237   -0.825881   -1.153567
     46          6           0       -4.640036    0.283398   -0.408253
     47          1           0       -6.526603   -1.567507    0.223227
     48          1           0       -6.215828   -4.022092    0.206800
     49          6           0       -3.582781    1.096671   -0.738224
     50          6           0       -2.329759    0.544719   -1.121025
     51          1           0       -5.591764    0.716783   -0.111650
     52          1           0       -3.697669    2.173309   -0.676391
     53          6           0        4.820862   -0.471338   -0.029550
     54          6           0        5.876971    0.342075   -0.453446
     55          6           0        4.920206   -1.862166   -0.144017
     56          6           0        7.024951   -0.231524   -0.999048
     57          1           0        5.792111    1.421537   -0.361597
     58          6           0        6.063888   -2.425156   -0.706695
     59          1           0        4.108829   -2.487850    0.204066
     60          6           0        7.119605   -1.616961   -1.135434
     61          1           0        7.839612    0.408347   -1.325134
     62          1           0        6.133568   -3.505180   -0.797933
     63          1           0        8.009573   -2.064193   -1.567926
 ---------------------------------------------------------------------

 SCF Done:  E(RB3LYP) =  -1685.90572749     A.U. after   13 cycles

 The electronic state is 1-A.
 Alpha  occ. eigenvalues --  -88.83496 -19.09837 -14.36980 -14.36247 -14.35484
 Alpha  occ. eigenvalues --  -10.30332 -10.27788 -10.23082 -10.22533 -10.22296
 Alpha  occ. eigenvalues --  -10.21057 -10.19493 -10.19323 -10.19279 -10.19147
 Alpha  occ. eigenvalues --  -10.18649 -10.18540 -10.18519 -10.18397 -10.18383
 Alpha  occ. eigenvalues --  -10.18382 -10.18358 -10.18334 -10.18296 -10.18274
 Alpha  occ. eigenvalues --  -10.18251 -10.18215 -10.18150 -10.18101 -10.15785
 Alpha  occ. eigenvalues --  -10.15775 -10.15690  -7.88841  -5.85333  -5.84766
 Alpha  occ. eigenvalues --   -5.84468  -1.04375  -1.00487  -0.95083  -0.93468
 Alpha  occ. eigenvalues --   -0.88139  -0.85775  -0.83335  -0.82426  -0.80036
 Alpha  occ. eigenvalues --   -0.78365  -0.76784  -0.76439  -0.75518  -0.73623
 Alpha  occ. eigenvalues --   -0.73147  -0.71933  -0.71010  -0.68531  -0.68403
 Alpha  occ. eigenvalues --   -0.65420  -0.63264  -0.62832  -0.62180  -0.61494
 Alpha  occ. eigenvalues --   -0.60304  -0.59659  -0.58516  -0.56949  -0.56242
 Alpha  occ. eigenvalues --   -0.54851  -0.53932  -0.52008  -0.51673  -0.51363
 Alpha  occ. eigenvalues --   -0.50194  -0.49294  -0.48149  -0.47725  -0.46672
 Alpha  occ. eigenvalues --   -0.46269  -0.45710  -0.45090  -0.44252  -0.44221
 Alpha  occ. eigenvalues --   -0.43451  -0.43282  -0.43026  -0.42408  -0.42297
 Alpha  occ. eigenvalues --   -0.42028  -0.41647  -0.41444  -0.40891  -0.40044
 Alpha  occ. eigenvalues --   -0.39679  -0.38580  -0.38381  -0.37989  -0.37567
 Alpha  occ. eigenvalues --   -0.37237  -0.37134  -0.36858  -0.36378  -0.36127
 Alpha  occ. eigenvalues --   -0.35964  -0.35591  -0.34948  -0.33818  -0.33672
 Alpha  occ. eigenvalues --   -0.33524  -0.33220  -0.33022  -0.32142  -0.30000
 Alpha  occ. eigenvalues --   -0.29451  -0.26769  -0.26456  -0.25977  -0.24712
 Alpha  occ. eigenvalues --   -0.24000  -0.22798  -0.22642  -0.21705
 Alpha virt. eigenvalues --   -0.05205  -0.03609  -0.02741  -0.01917  -0.00298
 Alpha virt. eigenvalues --    0.00962   0.01027   0.02130   0.03383   0.04585
 Alpha virt. eigenvalues --    0.04672   0.05094   0.05252   0.06140   0.06877

 Mulliken charges:
               1
     1  S   -0.449635
     2  O   -0.436947
     3  N   -0.051330
     4  N   -0.162110
     5  H    0.142623
     6  N   -0.134707
     7  H    0.146840
     8  C   -0.029844
     9  H    0.132126
    10  C   -0.156996
    11  H    0.100703
    12  H    0.100617
    13  C   -0.199706
    14  H    0.094943
    15  H    0.108015
    16  C   -0.100542
    17  H    0.104917
    18  H    0.098503
    19  C    0.186196
    20  C    0.034250
    21  H    0.154826
    22  C    0.137659
    23  C    0.178189
    24  C   -0.327876
    25  H    0.096767
    26  H    0.091883
    27  H    0.106457
    28  C   -0.334649
    29  H    0.101736
    30  H    0.090424
    31  H    0.078689
    32  C   -0.324489
    33  H    0.106812
    34  H    0.091829
    35  H    0.091155
    36  C   -0.137506
    37  C   -0.131909
    38  C    0.103662
    39  C    0.075560
    40  C   -0.140699
    41  C   -0.138325
    42  H    0.132063
    43  H    0.121627
    44  H    0.116785
    45  C   -0.181282
    46  C   -0.147317
    47  H    0.111863
    48  H    0.120380
    49  C   -0.155660
    50  C    0.036058
    51  H    0.109034
    52  H    0.111588
    53  C    0.160515
    54  C   -0.167831
    55  C   -0.107703
    56  C   -0.116565
    57  H    0.113846
    58  C   -0.115042
    59  H    0.127421
    60  C   -0.133925
    61  H    0.122200
    62  H    0.122424
    63  H    0.121407
 Sum of Mulliken charges =   0.00000

 Dipole moment (field-independent basis, Debye):
    X=             -0.2228    Y=              1.9451    Z=             -0.0892  Tot=              1.9599
 Quadrupole moment (field-independent basis, Debye-Ang):
   XX=           -171.3657   YY=           -192.5683   ZZ=           -201.9680
   XY=              3.6692   XZ=              2.2282   YZ=            -11.4355

 Normal termination of Gaussian 09 at Thu Mar 30 02:15:14 2017.
