 Gaussian 09, Revision D.01,
 Gaussian 09:  EM64L-G09RevD.01 24-Apr-2013

 ------------------
 #p ccsd(t) cc-pVTZ
 ------------------

 --------------------------------------
 water monomer CCSD(T)/cc-pVQZ geometry
 --------------------------------------
 Symbolic Z-matrix:
 Charge =  0 Multiplicity = 1

                         Standard orientation:
 ---------------------------------------------------------------------
 Center     Atomic      Atomic             Coordinates (Angstroms)
 Number     Number       Type             X           Y           Z
 ---------------------------------------------------------------------
      1          8           0        0.000000    0.118005    0.000000
      2          1           0        0.753667   -0.472069    0.000000
      3          1           0       -0.753667   -0.471972    0.000000
 ---------------------------------------------------------------------

 SCF Done:  E(RHF) =  -76.0571311662     A.U. after   10 cycles
 E2 =    -0.2615174930D+00 EUMP2 =    -0.76318648659194D+02
 CCSD(T)
 CCSD(T)= -0.76332205599D+02

 The electronic state is 1-A'.
 Alpha  occ. eigenvalues --  -20.55503  -1.34618  -0.70863  -0.57898  -0.50469
 Alpha virt. eigenvalues --    0.14216   0.20419   0.54320   0.60461   0.66777
 Alpha virt. eigenvalues --    0.78728   0.79769   0.80561   0.86247   0.95264
 Alpha virt. eigenvalues --    1.13241   1.19899   1.52554   1.56785   2.03986

 Mulliken charges:
               1
     1  O   -0.481063
     2  H    0.240541
     3  H    0.240522
 Sum of Mulliken charges =   0.00000

 Dipole moment (field-independent basis, Debye):
    X=              0.0000    Y=             -2.0349    Z=              0.0000  Tot=              2.0349
 Quadrupole moment (field-independent basis, Debye-Ang):
   XX=             -4.1858   YY=             -6.0370   ZZ=             -7.2939
   XY=             -0.0002   XZ=              0.0000   YZ=              0.0000

 65\CCSD(T)=-76.3322056\RMSD=6.057e-09\PG=CS [SG(H2O1)]\\@
 Normal termination of Gaussian 09 at Fri Mar 24 22:50:47 2017.
