 Gaussian 09, Revision D.01,
 Gaussian 09:  EM64L-G09RevD.01 24-Apr-2013

 ------------------
 #p ccsd(t) cc-pVQZ
 ------------------

 ------------------------------------
 water dimer CCSD(T)/cc-pVQZ geometry
 ------------------------------------
 Symbolic Z-matrix:
 Charge =  0 Multiplicity = 1

                         Standard orientation:
 ---------------------------------------------------------------------
 Center     Atomic      Atomic             Coordinates (Angstroms)
 Number     Number       Type             X           Y           Z
 ---------------------------------------------------------------------
      1          8           0       -0.001684    1.516645    0.000000
      2          1           0       -0.905818    1.830641    0.000000
      3          1           0       -0.082578    0.556134    0.000000
      4          8           0       -0.001684   -1.393774    0.000000
      5          1           0        0.507668   -1.684875    0.758561
      6          1           0        0.507668   -1.684875   -0.758561
 ---------------------------------------------------------------------

 SCF Done:  E(RHF) =  -152.135519037     A.U. after   10 cycles
 E2 =    -0.5685115251D+00 EUMP2 =    -0.15270403056224D+03
 CCSD(T)
 CCSD(T)= -0.15272821934D+03

 The electronic state is 1-A'.
 Alpha  occ. eigenvalues --  -20.58716 -20.52843  -1.37789  -1.31908  -0.74067
 Alpha  occ. eigenvalues --   -0.69130  -0.61273  -0.55816  -0.52905  -0.47955
 Alpha virt. eigenvalues --    0.10153   0.15483   0.16130   0.26963   0.41246
 Alpha virt. eigenvalues --    0.41884   0.47037   0.48443   0.51683   0.54177
 Alpha virt. eigenvalues --    0.57538   0.58363   0.59777   0.61361   0.62069

 Mulliken charges:
               1
     1  O   -0.584614
     2  H    0.255666
     3  H    0.304497
     4  O   -0.520752
     5  H    0.272602
     6  H    0.272602
 Sum of Mulliken charges =   0.00000

 Dipole moment (field-independent basis, Debye):
    X=              0.1127    Y=             -2.6510    Z=              0.0000  Tot=              2.6534
 Quadrupole moment (field-independent basis, Debye-Ang):
   XX=            -11.3441   YY=            -12.4227   ZZ=            -11.5737
   XY=             -6.5072   XZ=              0.0000   YZ=              0.0000

 Q=-152.7105056\CCSD=-152.7097401\CCSD(T)=-152.7282193\RMSD=5.843e-09\P
 Normal termination of Gaussian 09 at Fri Mar 24 22:32:19 2017.
