 Gaussian 09, Revision D.01,
 Gaussian 09:  EM64L-G09RevD.01 24-Apr-2013

 ------------------
 #p ccsd(t) cc-pVTZ
 ------------------

 ------------------------------------
 water dimer CCSD(T)/cc-pVQZ geometry
 ------------------------------------
 Symbolic Z-matrix:
 Charge =  0 Multiplicity = 1

                         Standard orientation:
 ---------------------------------------------------------------------
 Center     Atomic      Atomic             Coordinates (Angstroms)
 Number     Number       Type             X           Y           Z
 ---------------------------------------------------------------------
      1          8           0       -0.001684    1.516645    0.000000
      2          1           0       -0.905818    1.830641    0.000000
      3          1           0       -0.082578    0.556134    0.000000
      4          8           0       -0.001684   -1.393774    0.000000
      5          1           0        0.507668   -1.684875    0.758561
      6          1           0        0.507668   -1.684875   -0.758561
 ---------------------------------------------------------------------

 SCF Done:  E(RHF) =  -152.120955064     A.U. after   10 cycles
 E2 =    -0.5260263985D+00 EUMP2 =    -0.15264698146202D+03
 CCSD(T)
 CCSD(T)= -0.15267382174D+03

 The electronic state is 1-A'.
 Alpha  occ. eigenvalues --  -20.58480 -20.52257  -1.37557  -1.31457  -0.73764
 Alpha  occ. eigenvalues --   -0.68630  -0.60957  -0.55415  -0.52567  -0.47533
 Alpha virt. eigenvalues --    0.12450   0.18382   0.19191   0.31782   0.51149
 Alpha virt. eigenvalues --    0.54665   0.56575   0.61071   0.66853   0.71259
 Alpha virt. eigenvalues --    0.75958   0.76102   0.80718   0.81508   0.82476

 Mulliken charges:
               1
     1  O   -0.541070
     2  H    0.236699
     3  H    0.275160
     4  O   -0.480527
     5  H    0.254869
     6  H    0.254869
 Sum of Mulliken charges =   0.00000

 Dipole moment (field-independent basis, Debye):
    X=              0.1168    Y=             -2.6785    Z=              0.0000  Tot=              2.6811
 Quadrupole moment (field-independent basis, Debye-Ang):
   XX=            -11.1882   YY=            -12.2755   ZZ=            -11.4194
   XY=             -6.5119   XZ=              0.0000   YZ=              0.0000

 SDQ=-152.6586787\CCSD=-152.6580367\CCSD(T)=-152.6738217\RMSD=6.420e-09
 Normal termination of Gaussian 09 at Fri Mar 24 22:33:54 2017.
