 Gaussian 09, Revision D.01,
 Gaussian 09:  EM64L-G09RevD.01 24-Apr-2013

 ------------------
 #p ccsd(t) cc-pV5Z
 ------------------

 --------------------------------------
 water monomer CCSD(T)/cc-pVQZ geometry
 --------------------------------------
 Symbolic Z-matrix:
 Charge =  0 Multiplicity = 1

                         Standard orientation:
 ---------------------------------------------------------------------
 Center     Atomic      Atomic             Coordinates (Angstroms)
 Number     Number       Type             X           Y           Z
 ---------------------------------------------------------------------
      1          8           0        0.000000    0.118005    0.000000
      2          1           0        0.753667   -0.472069    0.000000
      3          1           0       -0.753667   -0.471972    0.000000
 ---------------------------------------------------------------------

 SCF Done:  E(RHF) =  -76.0670434970     A.U. after   10 cycles
 E2 =    -0.2915504781D+00 EUMP2 =    -0.76358593975114D+02
 CCSD(T)
 CCSD(T)= -0.76369033291D+02

 The electronic state is 1-A'.
 Alpha  occ. eigenvalues --  -20.56321  -1.35240  -0.71584  -0.58553  -0.51020
 Alpha virt. eigenvalues --    0.09022   0.13481   0.30853   0.34836   0.37093
 Alpha virt. eigenvalues --    0.40348   0.48360   0.48828   0.54748   0.59070
 Alpha virt. eigenvalues --    0.66119   0.75347   0.80888   0.84750   0.97684

 Mulliken charges:
               1
     1  O   -0.559411
     2  H    0.279708
     3  H    0.279704
 Sum of Mulliken charges =   0.00000

 Dipole moment (field-independent basis, Debye):
    X=              0.0000    Y=             -2.0116    Z=              0.0000  Tot=              2.0116
 Quadrupole moment (field-independent basis, Debye-Ang):
   XX=             -4.2531   YY=             -6.1946   ZZ=             -7.5013
   XY=             -0.0002   XZ=              0.0000   YZ=              0.0000

 13\CCSD(T)=-76.3690333\RMSD=1.543e-09\PG=CS [SG(H2O1)]\\@
 Normal termination of Gaussian 09 at Fri Mar 24 22:49:52 2017.
