 Gaussian 09, Revision D.01,
 Gaussian 09:  EM64L-G09RevD.01 24-Apr-2013

 ------------------
 #p ccsd(t) cc-pV6Z
 ------------------

 ------------------------------------
 water dimer CCSD(T)/cc-pVQZ geometry
 ------------------------------------
 Symbolic Z-matrix:
 Charge =  0 Multiplicity = 1

                         Standard orientation:
 ---------------------------------------------------------------------
 Center     Atomic      Atomic             Coordinates (Angstroms)
 Number     Number       Type             X           Y           Z
 ---------------------------------------------------------------------
      1          8           0       -0.001684    1.516645    0.000000
      2          1           0       -0.905818    1.830641    0.000000
      3          1           0       -0.082578    0.556134    0.000000
      4          8           0       -0.001684   -1.393774    0.000000
      5          1           0        0.507668   -1.684875    0.758561
      6          1           0        0.507668   -1.684875   -0.758561
 ---------------------------------------------------------------------

 SCF Done:  E(RHF) =  -152.140155589     A.U. after   15 cycles
 E2 =    -0.5930433052D+00 EUMP2 =    -0.15273319889413D+03
 CCSD(T)
 CCSD(T)= -0.15275202781D+03

 The electronic state is 1-A'.
 Alpha  occ. eigenvalues --  -20.58898 -20.53279  -1.37950  -1.32241  -0.74251
 Alpha  occ. eigenvalues --   -0.69475  -0.61463  -0.56085  -0.53099  -0.48210
 Alpha virt. eigenvalues --    0.05746   0.09805   0.10358   0.17304   0.21459
 Alpha virt. eigenvalues --    0.25958   0.26385   0.28904   0.31059   0.32282
 Alpha virt. eigenvalues --    0.35690   0.36787   0.37947   0.39761   0.42687

 Mulliken charges:
               1
     1  O   -0.460533
     2  H    0.206371
     3  H    0.236956
     4  O   -0.466498
     5  H    0.241852
     6  H    0.241852
 Sum of Mulliken charges =   0.00000

 Dipole moment (field-independent basis, Debye):
    X=              0.1181    Y=             -2.6291    Z=              0.0000  Tot=              2.6318
 Quadrupole moment (field-independent basis, Debye-Ang):
   XX=            -11.4826   YY=            -12.5551   ZZ=            -11.7233
   XY=             -6.5082   XZ=              0.0000   YZ=              0.0000

 SDQ=-152.7328916\CCSD=-152.7321774\CCSD(T)=-152.7520278\RMSD=3.450e-10
 Normal termination of Gaussian 09 at Thu Mar 30 16:51:25 2017.
