 Gaussian 09, Revision D.01,
 Gaussian 09:  EM64L-G09RevD.01 24-Apr-2013

 ------------------
 #p ccsd(t) cc-pVDZ
 ------------------

 ------------------------------------
 water dimer CCSD(T)/cc-pVQZ geometry
 ------------------------------------
 Symbolic Z-matrix:
 Charge =  0 Multiplicity = 1

                         Standard orientation:
 ---------------------------------------------------------------------
 Center     Atomic      Atomic             Coordinates (Angstroms)
 Number     Number       Type             X           Y           Z
 ---------------------------------------------------------------------
      1          8           0       -0.001684    1.516645    0.000000
      2          1           0       -0.905818    1.830641    0.000000
      3          1           0       -0.082578    0.556134    0.000000
      4          8           0       -0.001684   -1.393774    0.000000
      5          1           0        0.507668   -1.684875    0.758561
      6          1           0        0.507668   -1.684875   -0.758561
 ---------------------------------------------------------------------

 SCF Done:  E(RHF) =  -152.062536249     A.U. after   11 cycles
 E2 =    -0.4061756154D+00 EUMP2 =    -0.15246871186459D+03
 CCSD(T)
 CCSD(T)= -0.15249344701D+03

 The electronic state is 1-A'.
 Alpha  occ. eigenvalues --  -20.58414 -20.51611  -1.36904  -1.30369  -0.72972
 Alpha  occ. eigenvalues --   -0.67443  -0.60039  -0.54322  -0.51482  -0.46241
 Alpha virt. eigenvalues --    0.16388   0.23147   0.24026   0.38033   0.75954
 Alpha virt. eigenvalues --    0.80817   0.84422   0.86670   1.12591   1.20073
 Alpha virt. eigenvalues --    1.20614   1.23728   1.27134   1.31812   1.44851

 Mulliken charges:
               1
     1  O   -0.351218
     2  H    0.144585
     3  H    0.163608
     4  O   -0.297367
     5  H    0.170196
     6  H    0.170196
 Sum of Mulliken charges =   0.00000

 Dipole moment (field-independent basis, Debye):
    X=              0.1367    Y=             -2.7295    Z=              0.0000  Tot=              2.7330
 Quadrupole moment (field-independent basis, Debye-Ang):
   XX=            -10.8693   YY=            -11.9562   ZZ=            -11.1130
   XY=             -6.4675   XZ=              0.0000   YZ=              0.0000

 SDQ=-152.4864724\CCSD=-152.4870134\CCSD(T)=-152.493447\RMSD=3.087e-09\
 Normal termination of Gaussian 09 at Fri Mar 24 22:02:35 2017.
