 Gaussian 09, Revision D.01,
 Gaussian 09:  EM64L-G09RevD.01 24-Apr-2013

 ------------------
 #p ccsd(t) cc-pVQZ
 ------------------

 --------------------------------------
 water monomer CCSD(T)/cc-pVQZ geometry
 --------------------------------------
 Symbolic Z-matrix:
 Charge =  0 Multiplicity = 1

                         Standard orientation:
 ---------------------------------------------------------------------
 Center     Atomic      Atomic             Coordinates (Angstroms)
 Number     Number       Type             X           Y           Z
 ---------------------------------------------------------------------
      1          8           0        0.000000    0.118005    0.000000
      2          1           0        0.753667   -0.472069    0.000000
      3          1           0       -0.753667   -0.471972    0.000000
 ---------------------------------------------------------------------

 SCF Done:  E(RHF) =  -76.0647915910     A.U. after   10 cycles
 E2 =    -0.2828464980D+00 EUMP2 =    -0.76347638089051D+02
 CCSD(T)
 CCSD(T)= -0.76359794729D+02

 The electronic state is 1-A'.
 Alpha  occ. eigenvalues --  -20.56007  -1.35001  -0.71320  -0.58321  -0.50835
 Alpha virt. eigenvalues --    0.11697   0.17117   0.44877   0.46224   0.50302
 Alpha virt. eigenvalues --    0.58358   0.60360   0.61486   0.65749   0.71630
 Alpha virt. eigenvalues --    0.85186   0.92067   1.11275   1.15632   1.34545

 Mulliken charges:
               1
     1  O   -0.524842
     2  H    0.262434
     3  H    0.262408
 Sum of Mulliken charges =   0.00000

 Dipole moment (field-independent basis, Debye):
    X=              0.0000    Y=             -2.0172    Z=              0.0000  Tot=              2.0172
 Quadrupole moment (field-independent basis, Debye-Ang):
   XX=             -4.2218   YY=             -6.1254   ZZ=             -7.4132
   XY=             -0.0002   XZ=              0.0000   YZ=              0.0000

 05\CCSD(T)=-76.3597947\RMSD=2.269e-09\PG=CS [SG(H2O1)]\\@
 Normal termination of Gaussian 09 at Fri Mar 24 22:50:41 2017.
