 Gaussian 09, Revision D.01,
 Gaussian 09:  EM64L-G09RevD.01 24-Apr-2013

 ------------------
 #p ccsd(t) cc-pVDZ
 ------------------

 --------------------------------------
 water monomer CCSD(T)/cc-pVQZ geometry
 --------------------------------------
 Symbolic Z-matrix:
 Charge =  0 Multiplicity = 1

                         Standard orientation:
 ---------------------------------------------------------------------
 Center     Atomic      Atomic             Coordinates (Angstroms)
 Number     Number       Type             X           Y           Z
 ---------------------------------------------------------------------
      1          8           0        0.000000    0.118005    0.000000
      2          1           0        0.753667   -0.472069    0.000000
      3          1           0       -0.753667   -0.471972    0.000000
 ---------------------------------------------------------------------

 SCF Done:  E(RHF) =  -76.0268000763     A.U. after   10 cycles
 E2 =    -0.2016820487D+00 EUMP2 =    -0.76228482124922D+02
 CCSD(T)
 CCSD(T)= -0.76241081255D+02

 The electronic state is 1-A'.
 Alpha  occ. eigenvalues --  -20.55075  -1.33724  -0.69815  -0.56788  -0.49338
 Alpha virt. eigenvalues --    0.18546   0.25634   0.78724   0.85727   1.16401
 Alpha virt. eigenvalues --    1.20022   1.25395   1.43881   1.47836   1.67118
 Alpha virt. eigenvalues --    1.86590   1.93872   2.45143   2.49184   3.28906

 Mulliken charges:
               1
     1  O   -0.303963
     2  H    0.151996
     3  H    0.151968
 Sum of Mulliken charges =   0.00000

 Dipole moment (field-independent basis, Debye):
    X=              0.0000    Y=             -2.0658    Z=              0.0000  Tot=              2.0658
 Quadrupole moment (field-independent basis, Debye-Ang):
   XX=             -4.1491   YY=             -5.8690   ZZ=             -7.0325
   XY=             -0.0001   XZ=              0.0000   YZ=              0.0000

 16\CCSD(T)=-76.2410813\RMSD=3.518e-09\PG=CS [SG(H2O1)]\\@
 Normal termination of Gaussian 09 at Fri Mar 24 22:48:58 2017.
