 Gaussian 09, Revision D.01,
 Gaussian 09:  EM64L-G09RevD.01 24-Apr-2013

 ------------------
 #p ccsd(t) cc-pV5Z
 ------------------

 ------------------------------------
 water dimer CCSD(T)/cc-pVQZ geometry
 ------------------------------------
 Symbolic Z-matrix:
 Charge =  0 Multiplicity = 1

                         Standard orientation:
 ---------------------------------------------------------------------
 Center     Atomic      Atomic             Coordinates (Angstroms)
 Number     Number       Type             X           Y           Z
 ---------------------------------------------------------------------
      1          8           0       -0.001684    1.516645    0.000000
      2          1           0       -0.905818    1.830641    0.000000
      3          1           0       -0.082578    0.556134    0.000000
      4          8           0       -0.001684   -1.393774    0.000000
      5          1           0        0.507668   -1.684875    0.758561
      6          1           0        0.507668   -1.684875   -0.758561
 ---------------------------------------------------------------------

 SCF Done:  E(RHF) =  -152.139633415     A.U. after   11 cycles
 E2 =    -0.5857215221D+00 EUMP2 =    -0.15272535493734D+03
 CCSD(T)
 CCSD(T)= -0.15274622401D+03

 The electronic state is 1-A'.
 Alpha  occ. eigenvalues --  -20.58865 -20.53201  -1.37925  -1.32182  -0.74224
 Alpha  occ. eigenvalues --   -0.69417  -0.61433  -0.56038  -0.53070  -0.48168
 Alpha virt. eigenvalues --    0.07578   0.12241   0.12756   0.21072   0.27601
 Alpha virt. eigenvalues --    0.31957   0.33783   0.36947   0.40175   0.40626
 Alpha virt. eigenvalues --    0.43726   0.45586   0.46486   0.46868   0.49427

 Mulliken charges:
               1
     1  O   -0.633622
     2  H    0.273616
     3  H    0.341415
     4  O   -0.626101
     5  H    0.322346
     6  H    0.322346
 Sum of Mulliken charges =   0.00000

 Dipole moment (field-independent basis, Debye):
    X=              0.1145    Y=             -2.6370    Z=              0.0000  Tot=              2.6395
 Quadrupole moment (field-independent basis, Debye-Ang):
   XX=            -11.4556   YY=            -12.5328   ZZ=            -11.6892
   XY=             -6.5223   XZ=              0.0000   YZ=              0.0000

 SDQ=-152.7274737\CCSD=-152.7267103\CCSD(T)=-152.746224\RMSD=2.424e-09\
 Normal termination of Gaussian 09 at Sat Mar 25 01:35:47 2017.
