 Gaussian 09, Revision D.01,
 Gaussian 09:  EM64L-G09RevD.01 24-Apr-2013

 ------------------
 #p ccsd(t) cc-pV6Z
 ------------------

 --------------------------------------
 water monomer CCSD(T)/cc-pVQZ geometry
 --------------------------------------
 Symbolic Z-matrix:
 Charge =  0 Multiplicity = 1

                         Standard orientation:
 ---------------------------------------------------------------------
 Center     Atomic      Atomic             Coordinates (Angstroms)
 Number     Number       Type             X           Y           Z
 ---------------------------------------------------------------------
      1          8           0        0.000000    0.118005    0.000000
      2          1           0        0.753667   -0.472069    0.000000
      3          1           0       -0.753667   -0.471972    0.000000
 ---------------------------------------------------------------------

 SCF Done:  E(RHF) =  -76.0673595104     A.U. after    9 cycles
 E2 =    -0.2952457320D+00 EUMP2 =    -0.76362605242422D+02
 CCSD(T)
 CCSD(T)= -0.76372009061D+02

 The electronic state is 1-A'.
 Alpha  occ. eigenvalues --  -20.56396  -1.35295  -0.71642  -0.58605  -0.51060
 Alpha virt. eigenvalues --    0.06967   0.10906   0.24285   0.26843   0.28657
 Alpha virt. eigenvalues --    0.31202   0.39544   0.41520   0.47480   0.48961
 Alpha virt. eigenvalues --    0.50634   0.62300   0.66265   0.67186   0.75411

 Mulliken charges:
               1
     1  O   -0.389902
     2  H    0.194950
     3  H    0.194952
 Sum of Mulliken charges =   0.00000

 Dipole moment (field-independent basis, Debye):
    X=              0.0000    Y=             -2.0013    Z=              0.0000  Tot=              2.0013
 Quadrupole moment (field-independent basis, Debye-Ang):
   XX=             -4.2623   YY=             -6.2131   ZZ=             -7.5296
   XY=             -0.0002   XZ=              0.0000   YZ=              0.0000

 34\CCSD(T)=-76.3720091\RMSD=6.532e-09\PG=CS [SG(H2O1)]\\@
 Normal termination of Gaussian 09 at Sat Mar 25 20:49:04 2017.
