 Gaussian 09, Revision D.01,
 Gaussian 09:  ES64L-G09RevD.01 24-Apr-2013

 -----------------------------------------------------------------
 #p b3lyp/6-31g* opt=(ts,calcfc,noeigentest) freq=noraman pop=none
 -----------------------------------------------------------------

 -----
 title
 -----
 Symbolic Z-matrix:
 Charge =  0 Multiplicity = 1

 SCF Done:  E(RB3LYP) =  -574.575948948     A.U. after   16 cycles
 Optimization completed.
    -- Stationary point found.
 Normal termination of Gaussian 09 at Tue Jun 28 08:28:44 2016.

 --------------------------------------------------------------------
 #P Geom=AllCheck Guess=TCheck SCRF=Check GenChk RB3LYP/6-31G(d) Freq
 --------------------------------------------------------------------

 Structure from the checkpoint file:  "/scratch/users/ekwan16/hns/Gau-76940.chk"
 -----
 title
 -----
 Charge =  0 Multiplicity = 1

                         Standard orientation:
 ---------------------------------------------------------------------
 Center     Atomic      Atomic             Coordinates (Angstroms)
 Number     Number       Type             X           Y           Z
 ---------------------------------------------------------------------
      1          6           0        1.733517   -0.648876   -0.126660
      2          6           0        1.699899   -0.113766    1.158090
      3          6           0        0.848124   -1.699054   -0.460990
      4          6           0       -0.062898   -2.234331    0.428250
      5          6           0       -1.293052   -0.345007    1.027920
      6          6           0       -0.378469    0.661290    1.327640
      7          1           0        1.461127   -0.738355    2.011570
      8          1           0        0.739763   -1.945003   -1.515650
      9          1           0        0.137502   -2.265581    1.493180
     10          1           0       -0.821990   -2.927128    0.077620
     11          6           0        2.522129    0.050971   -1.211090
     12          1           0        2.319983    1.128552   -1.206690
     13          1           0        3.600569   -0.078922   -1.057060
     14          1           0        2.274968   -0.336708   -2.203660
     15          1           0        2.286202    0.772422    1.387000
     16          1           0       -0.151267    1.046540    2.312990
     17          1           0       -1.865464   -0.933775    1.731630
     18          6           0       -0.309536    1.559050    0.145790
     19          8           0        0.286207    2.591078   -0.017050
     20          8           0       -1.081548    0.986932   -0.861250
     21          6           0       -1.805731   -0.098055   -0.333210
     22          8           0       -2.667823   -0.642433   -0.967370
 ---------------------------------------------------------------------

 SCF Done:  E(RB3LYP) =  -574.575948948     A.U. after    1 cycles

 Isotropic polarizability for W=    0.000000      104.75 Bohr**3.
 End of Minotr F.D. properties file   721 does not exist.

 ******    1 imaginary frequencies (negative Signs) ******

                      1                      2                      3
                      A                      A                      A
 Frequencies --   -443.7311                56.3873                79.0373
 Red. masses --      8.0922                 4.2982                 1.0685
 Frc consts  --      0.9388                 0.0081                 0.0039
 IR Inten    --      3.6940                 1.5297                 0.6126

                      4                      5                      6
                      A                      A                      A
 Frequencies --    104.6710               131.8983               163.2376
 Red. masses --      5.3122                 4.8979                 6.1434
 Frc consts  --      0.0343                 0.0502                 0.0964
 IR Inten    --      2.9068                 0.7476                 1.4633

                      7                      8                      9
                      A                      A                      A
 Frequencies --    174.0274               203.0970               329.1376
 Red. masses --     15.2106                 4.1049                 2.6002
 Frc consts  --      0.2714                 0.0998                 0.1660
 IR Inten    --      3.4002                 0.4145                 2.3629

                     10                     11                     12
                      A                      A                      A
 Frequencies --    362.8798               400.5442               419.2746
 Red. masses --      2.8636                11.4247                 5.4741
 Frc consts  --      0.2222                 1.0799                 0.5670
 IR Inten    --      1.4840                 8.2752                 5.4082

                     13                     14                     15
                      A                      A                      A
 Frequencies --    427.9301               536.0886               553.2606
 Red. masses --      2.4115                 2.6044                 2.2199
 Frc consts  --      0.2602                 0.4410                 0.4004
 IR Inten    --      0.4682                 0.9966                10.1133

                     16                     17                     18
                      A                      A                      A
 Frequencies --    590.2091               622.3159               715.6586
 Red. masses --      4.5967                10.2941                 7.4823
 Frc consts  --      0.9434                 2.3489                 2.2579
 IR Inten    --      4.4567                 2.6550                25.5650

                     19                     20                     21
                      A                      A                      A
 Frequencies --    730.2634               744.9796               764.3995
 Red. masses --      5.0887                 2.3802                 2.3827
 Frc consts  --      1.5989                 0.7783                 0.8203
 IR Inten    --     11.5946                 2.5385                 1.1403

                     22                     23                     24
                      A                      A                      A
 Frequencies --    782.6852               823.8122               845.9462
 Red. masses --      1.4402                 1.3318                 1.8109
 Frc consts  --      0.5198                 0.5325                 0.7635
 IR Inten    --      1.2217                 0.1030                 1.9938

                     25                     26                     27
                      A                      A                      A
 Frequencies --    885.5931               906.4953               923.1647
 Red. masses --      3.8390                 4.1732                 1.4909
 Frc consts  --      1.7739                 2.0205                 0.7486
 IR Inten    --     26.6360               103.5216                14.6683

                     28                     29                     30
                      A                      A                      A
 Frequencies --    977.1361               987.2422              1010.6639
 Red. masses --      1.2961                 1.2907                 1.2525
 Frc consts  --      0.7291                 0.7412                 0.7538
 IR Inten    --     26.3747                 9.1532                 4.5353

                     31                     32                     33
                      A                      A                      A
 Frequencies --   1016.8858              1048.3511              1070.8951
 Red. masses --      1.2408                 1.4122                 1.2844
 Frc consts  --      0.7559                 0.9144                 0.8679
 IR Inten    --      4.3081                 1.9708                11.3180

                     34                     35                     36
                      A                      A                      A
 Frequencies --   1076.5131              1081.9514              1120.9562
 Red. masses --      1.6559                 1.9211                 1.5893
 Frc consts  --      1.1306                 1.3250                 1.1766
 IR Inten    --     10.3492                32.0824                 0.8217

                     37                     38                     39
                      A                      A                      A
 Frequencies --   1265.1431              1295.8770              1304.1809
 Red. masses --      8.1190                 2.8198                 1.3999
 Frc consts  --      7.6565                 2.7900                 1.4029
 IR Inten    --    220.9994                 3.5063                 2.7988

                     40                     41                     42
                      A                      A                      A
 Frequencies --   1341.5434              1415.6671              1446.1188
 Red. masses --      1.8251                 2.1080                 1.3164
 Frc consts  --      1.9353                 2.4891                 1.6220
 IR Inten    --      0.4847                 7.7060                 4.0168

                     43                     44                     45
                      A                      A                      A
 Frequencies --   1459.8194              1505.5914              1513.5792
 Red. masses --      1.9641                 1.4717                 1.0443
 Frc consts  --      2.4660                 1.9656                 1.4096
 IR Inten    --      7.0276                11.6966                 7.9173

                     46                     47                     48
                      A                      A                      A
 Frequencies --   1531.7832              1585.1966              1614.1871
 Red. masses --      1.2255                 1.9252                 2.6689
 Frc consts  --      1.6942                 2.8503                 4.0972
 IR Inten    --     12.1960                 5.3508                 9.5996

                     49                     50                     51
                      A                      A                      A
 Frequencies --   1852.6091              1912.6488              3049.0330
 Red. masses --     12.6892                12.5075                 1.0379
 Frc consts  --     25.6596                26.9583                 5.6848
 IR Inten    --    555.1462               236.4586                15.8694

                     52                     53                     54
                      A                      A                      A
 Frequencies --   3106.3149              3136.2949              3170.9296
 Red. masses --      1.0997                 1.1019                 1.0576
 Frc consts  --      6.2520                 6.3862                 6.2654
 IR Inten    --      8.7111                10.3844                 4.9071

                     55                     56                     57
                      A                      A                      A
 Frequencies --   3176.9426              3182.6407              3249.8942
 Red. masses --      1.0774                 1.0685                 1.0966
 Frc consts  --      6.4071                 6.3769                 6.8242
 IR Inten    --      7.9517                 2.6385                 1.6238

                     58                     59                     60
                      A                      A                      A
 Frequencies --   3253.2990              3262.5864              3268.3525
 Red. masses --      1.1096                 1.1150                 1.0998
 Frc consts  --      6.9194                 6.9930                 6.9219
 IR Inten    --      2.1733                 2.8762                 0.4083

 - Thermochemistry -
 -------------------
 Temperature   298.150 Kelvin.  Pressure   1.00000 Atm.
 Atom     1 has atomic number  6 and mass  12.00000

 Molecular mass:   166.06299 amu.
 Principal axes and moments of inertia in atomic units:
                           1         2         3
     Eigenvalues --  1478.531621837.214862409.05040
           X            0.99848   0.04016  -0.03774
           Y           -0.04044   0.99916  -0.00667
           Z            0.03744   0.00819   0.99927
 This molecule is an asymmetric top.
 Rotational symmetry number  1.
 Warning -- assumption of classical behavior for rotation
           may cause significant error
 Rotational temperatures (Kelvin)      0.05858     0.04714     0.03595
 Rotational constants (GHZ):           1.22063     0.98232     0.74915
    1 imaginary frequencies ignored.
 Zero-point vibrational energy     451995.9 (Joules/Mol)
                                  108.02962 (Kcal/Mol)
 Warning -- explicit consideration of  15 degrees of freedom as
           vibrations may cause significant error
 Vibrational temperatures:     81.13   113.72   150.60   189.77   234.86
          (Kelvin)            250.39   292.21   473.55   522.10   576.29
                              603.24   615.70   771.31   796.02   849.18
                              895.37  1029.67  1050.68  1071.86  1099.80
                             1126.11  1185.28  1217.13  1274.17  1304.24
                             1328.23  1405.88  1420.42  1454.12  1463.07
                             1508.34  1540.78  1548.86  1556.68  1612.80
                             1820.26  1864.48  1876.42  1930.18  2036.83
                             2080.64  2100.35  2166.21  2177.70  2203.89
                             2280.74  2322.45  2665.49  2751.87  4386.87
                             4469.29  4512.42  4562.25  4570.91  4579.10
                             4675.87  4680.77  4694.13  4702.42

 Zero-point correction=                           0.172156 (Hartree/Particle)
 Thermal correction to Energy=                    0.183225
 Thermal correction to Enthalpy=                  0.184169
 Thermal correction to Gibbs Free Energy=         0.135070
 Sum of electronic and zero-point Energies=           -574.403793
 Sum of electronic and thermal Energies=              -574.392724
 Sum of electronic and thermal Enthalpies=            -574.391780
 Sum of electronic and thermal Free Energies=         -574.440879

                     E (Thermal)             CV                S
                      KCal/Mol        Cal/Mol-Kelvin    Cal/Mol-Kelvin
 Total                  114.975             41.791            103.338
 Electronic               0.000              0.000              0.000
 Translational            0.889              2.981             41.230
 Rotational               0.889              2.981             30.260
 Vibrational            113.198             35.830             31.848
 Vibration     1          0.596              1.975              4.580
 Vibration     2          0.600              1.963              3.915
 Vibration     3          0.605              1.945              3.365
 Vibration     4          0.612              1.921              2.918
 Vibration     5          0.623              1.888              2.512
 Vibration     6          0.627              1.874              2.392
 Vibration     7          0.639              1.835              2.105
 Vibration     8          0.712              1.617              1.264
 Vibration     9          0.737              1.549              1.110
 Vibration    10          0.766              1.469              0.961
 Vibration    11          0.782              1.428              0.894
 Vibration    12          0.789              1.409              0.865
 Vibration    13          0.891              1.170              0.574
 Vibration    14          0.909              1.133              0.537
 Vibration    15          0.948              1.053              0.467

 Optimization completed.
    -- Stationary point found.
 Normal termination of Gaussian 09 at Tue Jun 28 08:29:39 2016.
