 Gaussian 09, Revision D.01,
 Gaussian 09:  EM64L-G09RevD.01 24-Apr-2013

 --------------------------------
 #p b3lyp/6-31g* opt freq=noraman
 --------------------------------

 -------------------
 Title Card Required
 -------------------
 Symbolic Z-matrix:
 Charge =  0 Multiplicity = 1

 SCF Done:  E(RB3LYP) =  -76.4080189877     A.U. after    9 cycles
 SCF Done:  E(RB3LYP) =  -76.4089317973     A.U. after    9 cycles
 SCF Done:  E(RB3LYP) =  -76.4089533236     A.U. after    7 cycles
 Optimization completed.
    -- Stationary point found.
 Normal termination of Gaussian 09 at Fri Feb 24 13:16:34 2017.

 --------------------------------------------------------------------
 #P Geom=AllCheck Guess=TCheck SCRF=Check GenChk RB3LYP/6-31G(d) Freq
 --------------------------------------------------------------------

 Structure from the checkpoint file:  "/scratch/Gau-16918.chk"
 -------------------
 Title Card Required
 -------------------
 Charge =  0 Multiplicity = 1

                         Standard orientation:
 ---------------------------------------------------------------------
 Center     Atomic      Atomic             Coordinates (Angstroms)
 Number     Number       Type             X           Y           Z
 ---------------------------------------------------------------------
      1          8           0        0.000000    0.000000    0.119720
      2          1           0        0.000000    0.761560   -0.478879
      3          1           0        0.000000   -0.761560   -0.478879
 ---------------------------------------------------------------------

 SCF Done:  E(RB3LYP) =  -76.4089533236     A.U. after    1 cycles

 The electronic state is 1-A1.
 Alpha  occ. eigenvalues --  -19.13815  -0.99790  -0.51718  -0.37220  -0.29119
 Alpha virt. eigenvalues --    0.06262   0.14815   0.77253   0.86096   0.89078
 Alpha virt. eigenvalues --    0.89509   1.06581   1.19340   1.72912   1.74635
 Alpha virt. eigenvalues --    1.77981   2.28066   2.57724   3.55196

 Mulliken charges:
               1
     1  O   -0.774358
     2  H    0.387179
     3  H    0.387179
 Sum of Mulliken charges =   0.00000

 Dipole moment (field-independent basis, Debye):
    X=              0.0000    Y=              0.0000    Z=             -2.0952  Tot=              2.0952
 Quadrupole moment (field-independent basis, Debye-Ang):
   XX=             -7.2037   YY=             -4.2861   ZZ=             -5.9901
   XY=              0.0000   XZ=              0.0000   YZ=              0.0000

  Exact polarizability:   2.830   0.000   7.394   0.000   0.000   5.422
 Approx polarizability:   3.082   0.000   8.970   0.000   0.000   6.753

                      1                      2                      3
                     A1                     A1                     B2
 Frequencies --   1712.7968              3728.4714              3850.6126
 Red. masses --      1.0825                 1.0453                 1.0810
 Frc consts  --      1.8710                 8.5619                 9.4438
 IR Inten    --     75.8244                 1.7004                19.4234

 - Thermochemistry -
 -------------------
 Temperature   298.150 Kelvin.  Pressure   1.00000 Atm.
 Atom     1 has atomic number  8 and mass  15.99491

 Molecular mass:    18.01056 amu.
 Principal axes and moments of inertia in atomic units:
                           1         2         3
     Eigenvalues --     2.29054   4.17466   6.46520
           X            0.00000   0.00000   1.00000
           Y            1.00000   0.00000   0.00000
           Z            0.00000   1.00000   0.00000
 This molecule is an asymmetric top.
 Rotational symmetry number  2.
 Rotational temperatures (Kelvin)     37.81363    20.74752    13.39692
 Rotational constants (GHZ):         787.90920   432.30876   279.14689
 Zero-point vibrational energy      55577.8 (Joules/Mol)
                                   13.28341 (Kcal/Mol)
 Vibrational temperatures:   2464.33  5364.43  5540.17
          (Kelvin)

 Zero-point correction=                           0.021168 (Hartree/Particle)
 Thermal correction to Energy=                    0.024003
 Thermal correction to Enthalpy=                  0.024947
 Thermal correction to Gibbs Free Energy=         0.003501
 Sum of electronic and zero-point Energies=            -76.387785
 Sum of electronic and thermal Energies=               -76.384950
 Sum of electronic and thermal Enthalpies=             -76.384006
 Sum of electronic and thermal Free Energies=          -76.405452

                     E (Thermal)             CV                S
                      KCal/Mol        Cal/Mol-Kelvin    Cal/Mol-Kelvin
 Total                   15.062              5.997             45.136
 Electronic               0.000              0.000              0.000
 Translational            0.889              2.981             34.608
 Rotational               0.889              2.981             10.523
 Vibrational             13.285              0.035              0.005

 Optimization completed.
    -- Stationary point found.
 Normal termination of Gaussian 09 at Fri Feb 24 13:16:42 2017.
