 Gaussian 09, Revision D.01,
 Gaussian 09:  EM64L-G09RevD.01 24-Apr-2013

 ----------------------------------------------------------------------
 #p b3lyp empiricaldispersion=gd3bj 6-31g* scrf=(pcm,solvent=1,4-dioxan
 e) opt=(ts,calcfc,maxstep=5,noeigentest) freq=noraman
 ----------------------------------------------------------------------

 -------------------
 Title Card Required
 -------------------
 Symbolic Z-matrix:
 Charge =  0 Multiplicity = 1

 SCF Done:  E(RB3LYP) =  -745.714355522     A.U. after   14 cycles
 SCF Done:  E(RB3LYP) =  -745.719042105     A.U. after   10 cycles
 SCF Done:  E(RB3LYP) =  -745.722645815     A.U. after   10 cycles
 SCF Done:  E(RB3LYP) =  -745.725296832     A.U. after   10 cycles
 SCF Done:  E(RB3LYP) =  -745.727041920     A.U. after   10 cycles
 SCF Done:  E(RB3LYP) =  -745.727943335     A.U. after   10 cycles
 SCF Done:  E(RB3LYP) =  -745.728110513     A.U. after   10 cycles
 SCF Done:  E(RB3LYP) =  -745.728113770     A.U. after    8 cycles
 SCF Done:  E(RB3LYP) =  -745.728114177     A.U. after    7 cycles
 SCF Done:  E(RB3LYP) =  -745.728114864     A.U. after    7 cycles
 SCF Done:  E(RB3LYP) =  -745.728115034     A.U. after    7 cycles
 SCF Done:  E(RB3LYP) =  -745.728115078     A.U. after    6 cycles
 Optimization completed.
    -- Stationary point found.
 Normal termination of Gaussian 09 at Mon Mar 20 14:04:07 2017.

 --------------------------------------------------------------------
 #P Geom=AllCheck Guess=TCheck SCRF=Check GenChk RB3LYP/6-31G(d) Freq
 --------------------------------------------------------------------

 Structure from the checkpoint file:  "/scratch/ekwan_da_meta_endo_full-b3lyp_d3bj-631gd-ts/Gau-24569.chk"
 -------------------
 Title Card Required
 -------------------
 Charge =  0 Multiplicity = 1

                         Standard orientation:
 ---------------------------------------------------------------------
 Center     Atomic      Atomic             Coordinates (Angstroms)
 Number     Number       Type             X           Y           Z
 ---------------------------------------------------------------------
      1          6           0        1.270567   -1.303399    1.482635
      2          1           0        1.762921   -0.788359    2.303959
      3          6           0        2.052998   -1.965752    0.551400
      4          1           0        3.127530   -2.036396    0.687808
      5          1           0        1.627722   -2.717367   -0.103906
      6          6           0       -0.086344   -1.037133    1.276043
      7          1           0       -0.593886   -0.336705    1.927305
      8          6           0       -0.725249   -1.432655    0.098117
      9          1           0       -0.428228   -2.361886   -0.372220
     10          7           0       -2.073526   -1.133786   -0.185012
     11          1           0       -2.543496   -1.710733   -0.868660
     12          6           0       -2.696952    0.053630    0.105514
     13          8           0       -2.245326    0.956333    0.786297
     14          8           0       -3.920238    0.068290   -0.480423
     15          6           0        1.798029   -0.579896   -1.248762
     16          1           0        2.316140   -1.286711   -1.887331
     17          6           0        0.426456   -0.368853   -1.401601
     18          1           0       -0.087210   -0.882020   -2.209173
     19          1           0        0.001803    0.580721   -1.100813
     20          6           0        2.689230    0.431305   -0.657730
     21          8           0        3.905115    0.443245   -0.762232
     22          8           0        2.002597    1.366833    0.044981
     23          6           0        2.807269    2.347025    0.709953
     24          1           0        2.104180    3.006711    1.218969
     25          1           0        3.475530    1.870276    1.432688
     26          1           0        3.408242    2.908666   -0.010049
     27          6           0       -4.689926    1.254409   -0.231635
     28          1           0       -5.631109    1.104503   -0.760431
     29          1           0       -4.867799    1.379503    0.839337
     30          1           0       -4.171315    2.136600   -0.614980
 ---------------------------------------------------------------------

 SCF Done:  E(RB3LYP) =  -745.728115078     A.U. after    1 cycles

 The electronic state is 1-A.
 Alpha  occ. eigenvalues --  -19.19594 -19.17778 -19.13164 -19.11566 -14.38115
 Alpha  occ. eigenvalues --  -10.34281 -10.29919 -10.24572 -10.24214 -10.22877
 Alpha  occ. eigenvalues --  -10.19561 -10.19478 -10.19127 -10.18561 -10.18499
 Alpha  occ. eigenvalues --   -1.11211  -1.08523  -1.01864  -0.99414  -0.94846
 Alpha  occ. eigenvalues --   -0.81580  -0.77482  -0.74797  -0.70852  -0.70402
 Alpha  occ. eigenvalues --   -0.64702  -0.61990  -0.59650  -0.56229  -0.55065
 Alpha  occ. eigenvalues --   -0.53274  -0.50709  -0.49331  -0.48814  -0.47156
 Alpha  occ. eigenvalues --   -0.46680  -0.45945  -0.44751  -0.43932  -0.42848
 Alpha  occ. eigenvalues --   -0.42233  -0.41906  -0.40684  -0.39248  -0.37843
 Alpha  occ. eigenvalues --   -0.37101  -0.36755  -0.35770  -0.35314  -0.34416
 Alpha  occ. eigenvalues --   -0.30558  -0.29979  -0.28791  -0.28319  -0.26008
 Alpha  occ. eigenvalues --   -0.23207  -0.21338
 Alpha virt. eigenvalues --   -0.03291  -0.00557   0.04491   0.06107   0.07589
 Alpha virt. eigenvalues --    0.09737   0.10602   0.11682   0.12433   0.13249
 Alpha virt. eigenvalues --    0.13753   0.13949   0.14927   0.15609   0.16499

 Mulliken charges:
               1
     1  C   -0.088384
     2  H    0.138905
     3  C   -0.357863
     4  H    0.169639
     5  H    0.159406
     6  C   -0.094185
     7  H    0.169174
     8  C   -0.009406
     9  H    0.174303
    10  N   -0.615653
    11  H    0.355149
    12  C    0.799758
    13  O   -0.520171
    14  O   -0.484179
    15  C   -0.172909
    16  H    0.157027
    17  C   -0.348069
    18  H    0.150080
    19  H    0.191741
    20  C    0.636618
    21  O   -0.538660
    22  O   -0.457117
    23  C   -0.217228
    24  H    0.167111
    25  H    0.162688
    26  H    0.166918
    27  C   -0.215574
    28  H    0.171939
    29  H    0.174463
    30  H    0.174479
 Sum of Mulliken charges =   0.00000

 Dipole moment (field-independent basis, Debye):
    X=             -4.4494    Y=             -1.4704    Z=             -0.7652  Tot=              4.7482
 Quadrupole moment (field-independent basis, Debye-Ang):
   XX=            -89.9323   YY=            -79.3382   ZZ=            -86.4532
   XY=             -0.1233   XZ=             10.0610   YZ=              4.8588

  Exact polarizability: 197.331  -9.601 126.532   2.330   3.662 126.029
 Approx polarizability: 261.544 -11.621 169.372  -1.186   2.308 197.717

 ******    1 imaginary frequencies (negative Signs) ******

                      1                      2                      3
                      A                      A                      A
 Frequencies --   -488.7134                30.0663                45.0981
 Red. masses --      8.2148                 5.0934                 4.5561
 Frc consts  --      1.1560                 0.0027                 0.0055
 IR Inten    --     33.2157                 0.2799                 3.2443

                      4                      5                      6
                      A                      A                      A
 Frequencies --     51.2658                77.0709                91.2294
 Red. masses --      5.2987                 3.9630                 3.4604
 Frc consts  --      0.0082                 0.0139                 0.0170
 IR Inten    --      3.6009                 1.9595                 1.6640

                      7                      8                      9
                      A                      A                      A
 Frequencies --    116.6148               124.0355               139.0461
 Red. masses --      1.5567                 2.5665                 1.3130
 Frc consts  --      0.0125                 0.0233                 0.0150
 IR Inten    --      3.7863                 0.5287                 0.2610

                     10                     11                     12
                      A                      A                      A
 Frequencies --    151.4065               188.3762               199.2917
 Red. masses --      2.3051                 4.5929                 4.6653
 Frc consts  --      0.0311                 0.0960                 0.1092
 IR Inten    --      1.6951                 4.8378                 0.6324

                     13                     14                     15
                      A                      A                      A
 Frequencies --    230.9044               243.2614               287.3084
 Red. masses --      3.4451                 3.5487                 4.9840
 Frc consts  --      0.1082                 0.1237                 0.2424
 IR Inten    --      2.6464                 4.2393                10.9610

                     16                     17                     18
                      A                      A                      A
 Frequencies --    322.6371               342.8007               356.2076
 Red. masses --      3.4755                 4.1023                 4.2966
 Frc consts  --      0.2132                 0.2840                 0.3212
 IR Inten    --     18.5619                10.2736                13.4169

                     19                     20                     21
                      A                      A                      A
 Frequencies --    384.4827               419.4705               477.7525
 Red. masses --      4.7039                 4.5379                 2.5544
 Frc consts  --      0.4097                 0.4704                 0.3435
 IR Inten    --     11.2011                12.7305                11.1017

                     22                     23                     24
                      A                      A                      A
 Frequencies --    521.5343               550.9160               573.4852
 Red. masses --      1.2659                 2.5182                 3.8453
 Frc consts  --      0.2029                 0.4503                 0.7451
 IR Inten    --     89.0316                20.4815                 1.9580

                     25                     26                     27
                      A                      A                      A
 Frequencies --    642.7007               661.5326               709.3412
 Red. masses --      2.9363                 3.4199                 1.6431
 Frc consts  --      0.7146                 0.8818                 0.4871
 IR Inten    --      2.6317                 0.7269                47.7254

                     28                     29                     30
                      A                      A                      A
 Frequencies --    734.0499               757.0798               768.9054
 Red. masses --      2.0420                 8.6775                 4.0803
 Frc consts  --      0.6483                 2.9304                 1.4213
 IR Inten    --     10.8306                27.4638                 7.6180

                     31                     32                     33
                      A                      A                      A
 Frequencies --    795.3832               857.3145               866.5027
 Red. masses --      1.8658                 1.8752                 2.2694
 Frc consts  --      0.6954                 0.8120                 1.0039
 IR Inten    --      5.4863                25.7174                 6.1501

                     34                     35                     36
                      A                      A                      A
 Frequencies --    915.6140               932.4278               955.4676
 Red. masses --      1.5335                 1.2581                 2.4979
 Frc consts  --      0.7575                 0.6445                 1.3436
 IR Inten    --     24.9848                23.0997                27.6884

                     37                     38                     39
                      A                      A                      A
 Frequencies --    975.0265               999.7941              1029.6035
 Red. masses --      1.4070                 1.2275                 2.2692
 Frc consts  --      0.7881                 0.7229                 1.4173
 IR Inten    --      7.1551                 6.5885                44.8870

                     40                     41                     42
                      A                      A                      A
 Frequencies --   1033.1327              1050.2083              1066.9644
 Red. masses --      1.2710                 1.4940                 2.2936
 Frc consts  --      0.7993                 0.9709                 1.5384
 IR Inten    --      3.6237                12.7640                23.7761

                     43                     44                     45
                      A                      A                      A
 Frequencies --   1109.1501              1116.2663              1186.6575
 Red. masses --      2.2980                 2.5863                 1.2750
 Frc consts  --      1.6657                 1.8988                 1.0578
 IR Inten    --     38.7272               127.6509                 1.3642

                     46                     47                     48
                      A                      A                      A
 Frequencies --   1190.0681              1214.6937              1217.9498
 Red. masses --      1.2638                 1.5039                 1.4829
 Frc consts  --      1.0546                 1.3074                 1.2961
 IR Inten    --      0.8953                55.8084                15.3374

                     49                     50                     51
                      A                      A                      A
 Frequencies --   1233.6821              1251.9390              1262.7928
 Red. masses --      1.7639                 3.6986                 1.6550
 Frc consts  --      1.5817                 3.4155                 1.5549
 IR Inten    --      3.9712               618.5353                19.0972

                     52                     53                     54
                      A                      A                      A
 Frequencies --   1291.8029              1296.8051              1325.1049
 Red. masses --      1.6157                 2.8942                 1.5348
 Frc consts  --      1.5885                 2.8676                 1.5879
 IR Inten    --    150.8435               278.9691               122.1419

                     55                     56                     57
                      A                      A                      A
 Frequencies --   1377.9359              1420.1639              1487.0643
 Red. masses --      1.5485                 1.6682                 1.2186
 Frc consts  --      1.7323                 1.9823                 1.5877
 IR Inten    --     48.3499                26.7831                54.5256

                     58                     59                     60
                      A                      A                      A
 Frequencies --   1493.1412              1499.2836              1509.9000
 Red. masses --      1.2188                 1.4538                 1.0486
 Frc consts  --      1.6010                 1.9253                 1.4086
 IR Inten    --     22.5447                67.0267                 9.9528

                     61                     62                     63
                      A                      A                      A
 Frequencies --   1509.9932              1522.9683              1523.4824
 Red. masses --      1.0479                 1.0528                 1.0691
 Frc consts  --      1.4077                 1.4387                 1.4620
 IR Inten    --      2.4025                 4.0487                65.0993

                     64                     65                     66
                      A                      A                      A
 Frequencies --   1536.5150              1560.0833              1608.2642
 Red. masses --      1.6274                 2.0024                 2.4418
 Frc consts  --      2.2637                 2.8714                 3.7211
 IR Inten    --     17.9040               571.2488                 4.5149

                     67                     68                     69
                      A                      A                      A
 Frequencies --   1618.8314              1781.2739              1810.2700
 Red. masses --      2.7042                10.5824                 9.7451
 Frc consts  --      4.1754                19.7832                18.8159
 IR Inten    --     10.6890               437.9694               255.2261

                     70                     71                     72
                      A                      A                      A
 Frequencies --   3071.8695              3078.9555              3143.5372
 Red. masses --      1.0301                 1.0296                 1.1069
 Frc consts  --      5.7271                 5.7508                 6.4446
 IR Inten    --     41.8909                42.1648                28.0439

                     73                     74                     75
                      A                      A                      A
 Frequencies --   3154.6931              3165.7350              3175.7927
 Red. masses --      1.1080                 1.0594                 1.0609
 Frc consts  --      6.4971                 6.2552                 6.3042
 IR Inten    --     23.9786                11.3875                10.4289

                     76                     77                     78
                      A                      A                      A
 Frequencies --   3180.1006              3182.2128              3186.7627
 Red. masses --      1.1064                 1.0859                 1.1069
 Frc consts  --      6.5923                 6.4789                 6.6232
 IR Inten    --     17.7900                13.2360                20.3680

                     79                     80                     81
                      A                      A                      A
 Frequencies --   3215.5293              3217.2997              3245.7806
 Red. masses --      1.0904                 1.0897                 1.0900
 Frc consts  --      6.6425                 6.6458                 6.7658
 IR Inten    --      7.8331                 6.2601                 0.6664

                     82                     83                     84
                      A                      A                      A
 Frequencies --   3255.6341              3267.7138              3625.0121
 Red. masses --      1.1161                 1.1129                 1.0773
 Frc consts  --      6.9698                 7.0018                 8.3410
 IR Inten    --      8.1910                 3.9093                59.6108

 - Thermochemistry -
 -------------------
 Temperature   298.150 Kelvin.  Pressure   1.00000 Atm.
 Atom     1 has atomic number  6 and mass  12.00000

 Molecular mass:   213.10011 amu.
 Principal axes and moments of inertia in atomic units:
                           1         2         3
     Eigenvalues --  1671.972205810.152166394.19281
           X            0.99992  -0.00792   0.00970
           Y            0.00745   0.99886   0.04710
           Z           -0.01006  -0.04702   0.99884
 This molecule is an asymmetric top.
 Rotational symmetry number  1.
 Warning -- assumption of classical behavior for rotation
           may cause significant error
 Rotational temperatures (Kelvin)      0.05180     0.01491     0.01355
 Rotational constants (GHZ):           1.07941     0.31062     0.28225
    1 imaginary frequencies ignored.
 Zero-point vibrational energy     644775.4 (Joules/Mol)
                                  154.10501 (Kcal/Mol)
 Warning -- explicit consideration of  23 degrees of freedom as
           vibrations may cause significant error
 Vibrational temperatures:     43.26    64.89    73.76   110.89   131.26
          (Kelvin)            167.78   178.46   200.06   217.84   271.03
                              286.74   332.22   350.00   413.37   464.20
                              493.21   512.50   553.18   603.52   687.38
                              750.37   792.64   825.12   924.70   951.80
                             1020.58  1056.13  1089.27  1106.28  1144.38
                             1233.48  1246.70  1317.36  1341.55  1374.70
                             1402.84  1438.48  1481.37  1486.45  1511.01
                             1535.12  1595.82  1606.06  1707.33  1712.24
                             1747.67  1752.36  1774.99  1801.26  1816.87
                             1858.61  1865.81  1906.53  1982.54  2043.30
                             2139.55  2148.29  2157.13  2172.41  2172.54
                             2191.21  2191.95  2210.70  2244.61  2313.93
                             2329.13  2562.85  2604.57  4419.73  4429.92
                             4522.84  4538.89  4554.78  4569.25  4575.45
                             4578.49  4585.04  4626.42  4628.97  4669.95
                             4684.13  4701.51  5215.58

 Zero-point correction=                           0.245582 (Hartree/Particle)
 Thermal correction to Energy=                    0.261787
 Thermal correction to Enthalpy=                  0.262731
 Thermal correction to Gibbs Free Energy=         0.200682
 Sum of electronic and zero-point Energies=           -745.482533
 Sum of electronic and thermal Energies=              -745.466328
 Sum of electronic and thermal Enthalpies=            -745.465384
 Sum of electronic and thermal Free Energies=         -745.527433

                     E (Thermal)             CV                S
                      KCal/Mol        Cal/Mol-Kelvin    Cal/Mol-Kelvin
 Total                  164.274             58.315            130.594
 Electronic               0.000              0.000              0.000
 Translational            0.889              2.981             41.973
 Rotational               0.889              2.981             32.496
 Vibrational            162.496             52.353             56.124
 Vibration     1          0.594              1.984              5.825
 Vibration     2          0.595              1.979              5.022
 Vibration     3          0.596              1.977              4.768
 Vibration     4          0.599              1.964              3.964
 Vibration     5          0.602              1.955              3.634
 Vibration     6          0.608              1.936              3.156
 Vibration     7          0.610              1.929              3.037
 Vibration     8          0.615              1.914              2.817
 Vibration     9          0.619              1.901              2.654
 Vibration    10          0.633              1.856              2.244
 Vibration    11          0.637              1.841              2.140
 Vibration    12          0.653              1.794              1.872
 Vibration    13          0.659              1.774              1.779
 Vibration    14          0.684              1.697              1.490
 Vibration    15          0.708              1.630              1.297
 Vibration    16          0.722              1.590              1.199
 Vibration    17          0.732              1.563              1.139
 Vibration    18          0.753              1.503              1.021
 Vibration    19          0.782              1.428              0.894
 Vibration    20          0.834              1.299              0.716
 Vibration    21          0.877              1.202              0.606
 Vibration    22          0.906              1.138              0.542
 Vibration    23          0.930              1.089              0.498

 Optimization completed.
    -- Stationary point found.
 Normal termination of Gaussian 09 at Mon Mar 20 14:10:57 2017.
