 Gaussian 09, Revision D.01,
 Gaussian 09:  EM64L-G09RevD.01 24-Apr-2013

 ----------------------------------------------------------------------
 #p b3lyp empiricaldispersion=gd3bj cc-pVTZ scrf=(pcm,solvent=1,4-dioxa
 ne)
 ----------------------------------------------------------------------

 -------------------
 Title Card Required
 -------------------
 Symbolic Z-matrix:
 Charge =  0 Multiplicity = 1

                         Standard orientation:
 ---------------------------------------------------------------------
 Center     Atomic      Atomic             Coordinates (Angstroms)
 Number     Number       Type             X           Y           Z
 ---------------------------------------------------------------------
      1          6           0       -1.307672    2.552210   -0.447510
      2          1           0       -1.366595    3.572885   -0.058341
      3          6           0       -2.473153    1.807723   -0.552329
      4          1           0       -3.438373    2.255817   -0.308163
      5          1           0       -2.518864    0.938090   -1.207701
      6          6           0       -0.035594    1.984597   -0.584280
      7          1           0        0.843955    2.570239   -0.321267
      8          6           0        0.119306    0.606770   -0.785821
      9          1           0       -0.631451    0.063035   -1.358435
     10          7           0        1.377664   -0.019550   -0.870947
     11          1           0        1.416069   -0.928545   -1.316563
     12          6           0        2.468658    0.294781   -0.096189
     13          8           0        2.566904    1.252903    0.647628
     14          8           0        3.436879   -0.630848   -0.295668
     15          6           0       -2.127773    0.263491    1.107117
     16          1           0       -2.424528    0.989414    1.861744
     17          6           0       -0.795560   -0.153013    1.001913
     18          1           0       -0.051343    0.279178    1.671624
     19          1           0       -0.598838   -1.168932    0.660179
     20          6           0       -3.236073   -0.579952    0.633064
     21          8           0       -4.389969   -0.519130    1.012630
     22          8           0       -2.831481   -1.447451   -0.342855
     23          6           0       -3.860082   -2.302472   -0.860394
     24          1           0       -4.679280   -1.709382   -1.293382
     25          1           0       -3.378157   -2.913835   -1.633083
     26          1           0       -4.271890   -2.942947   -0.066064
     27          6           0        4.659544   -0.414717    0.445875
     28          1           0        4.425767   -0.408015    1.522028
     29          1           0        5.061977    0.576684    0.185689
     30          6           0        5.611092   -1.532011    0.076474
     31          1           0        6.559764   -1.408362    0.621381
     32          1           0        5.185982   -2.513304    0.338698
     33          1           0        5.827324   -1.523406   -1.003113
 ---------------------------------------------------------------------

 SCF Done:  E(RB3LYP) =  -785.352087518     A.U. after   13 cycles

 The electronic state is 1-A.
 Alpha  occ. eigenvalues --  -19.17941 -19.17250 -19.11445 -19.10874 -14.36784
 Alpha  occ. eigenvalues --  -10.33382 -10.29836 -10.23999 -10.23912 -10.22820
 Alpha  occ. eigenvalues --  -10.19111 -10.18864 -10.18776 -10.18022 -10.17899
 Alpha  occ. eigenvalues --  -10.17885  -1.11826  -1.09965  -1.02666  -1.01183
 Alpha  occ. eigenvalues --   -0.95443  -0.82387  -0.78627  -0.78005  -0.73098
 Alpha  occ. eigenvalues --   -0.71443  -0.67214  -0.63059  -0.62635  -0.59913
 Alpha  occ. eigenvalues --   -0.57170  -0.56042  -0.53959  -0.51349  -0.50518
 Alpha  occ. eigenvalues --   -0.50174  -0.48380  -0.47651  -0.47243  -0.45007
 Alpha  occ. eigenvalues --   -0.44823  -0.44582  -0.43145  -0.42142  -0.41906
 Alpha  occ. eigenvalues --   -0.40117  -0.39975  -0.38575  -0.38406  -0.37905
 Alpha  occ. eigenvalues --   -0.36686  -0.36480  -0.36209  -0.35901  -0.31404
 Alpha  occ. eigenvalues --   -0.31198  -0.30707  -0.29436  -0.27909  -0.24328
 Alpha  occ. eigenvalues --   -0.22497
 Alpha virt. eigenvalues --   -0.04965  -0.02328   0.02097   0.03171   0.03679
 Alpha virt. eigenvalues --    0.04704   0.04924   0.05725   0.06949   0.07463
 Alpha virt. eigenvalues --    0.08368   0.09004   0.09304   0.09449   0.10249

 Mulliken charges:
               1
     1  C   -0.092027
     2  H    0.122606
     3  C   -0.270426
     4  H    0.129636
     5  H    0.125685
     6  C   -0.127979
     7  H    0.128053
     8  C   -0.019736
     9  H    0.144232
    10  N   -0.130955
    11  H    0.161009
    12  C    0.353985
    13  O   -0.383477
    14  O   -0.271446
    15  C   -0.127444
    16  H    0.142647
    17  C   -0.257856
    18  H    0.135210
    19  H    0.125844
    20  C    0.334690
    21  O   -0.373394
    22  O   -0.266548
    23  C   -0.104747
    24  H    0.093693
    25  H    0.102474
    26  H    0.098254
    27  C    0.031206
    28  H    0.090355
    29  H    0.089818
    30  C   -0.277117
    31  H    0.098342
    32  H    0.097197
    33  H    0.098217
 Sum of Mulliken charges =   0.00000

 Dipole moment (field-independent basis, Debye):
    X=              3.4094    Y=             -2.6645    Z=             -2.5120  Tot=              5.0034
 Quadrupole moment (field-independent basis, Debye-Ang):
   XX=            -99.3504   YY=            -92.1788   ZZ=            -97.2800
   XY=             -4.3077   XZ=              8.2941   YZ=              3.5987

 Normal termination of Gaussian 09 at Mon Mar 20 19:13:36 2017.
