 Gaussian 09, Revision D.01,
 Gaussian 09:  EM64L-G09RevD.01 24-Apr-2013

 ----------------------------------------------------------------------
 #p b3lyp empiricaldispersion=gd3bj midix scrf=(pcm,solvent=1,4-dioxane
 ) opt=(ts,calcfc,maxstep=5,noeigentest) freq=noraman
 ----------------------------------------------------------------------

 -------------------
 Title Card Required
 -------------------
 Symbolic Z-matrix:
 Charge =  0 Multiplicity = 1

 SCF Done:  E(RB3LYP) =  -663.296399445     A.U. after   14 cycles
 SCF Done:  E(RB3LYP) =  -663.296027691     A.U. after   11 cycles
 SCF Done:  E(RB3LYP) =  -663.295920304     A.U. after   12 cycles
 SCF Done:  E(RB3LYP) =  -663.296376133     A.U. after   12 cycles
 SCF Done:  E(RB3LYP) =  -663.296587473     A.U. after   11 cycles
 SCF Done:  E(RB3LYP) =  -663.296653264     A.U. after   10 cycles
 SCF Done:  E(RB3LYP) =  -663.296653804     A.U. after    8 cycles
 SCF Done:  E(RB3LYP) =  -663.296653705     A.U. after    7 cycles
 SCF Done:  E(RB3LYP) =  -663.296591653     A.U. after   11 cycles
 SCF Done:  E(RB3LYP) =  -663.296653775     A.U. after   11 cycles
 SCF Done:  E(RB3LYP) =  -663.296647117     A.U. after   10 cycles
 SCF Done:  E(RB3LYP) =  -663.296653768     A.U. after   10 cycles
 SCF Done:  E(RB3LYP) =  -663.296653069     A.U. after    9 cycles
 SCF Done:  E(RB3LYP) =  -663.296644931     A.U. after   10 cycles
 SCF Done:  E(RB3LYP) =  -663.296653310     A.U. after   10 cycles
 SCF Done:  E(RB3LYP) =  -663.296644063     A.U. after    9 cycles
 SCF Done:  E(RB3LYP) =  -663.296653784     A.U. after    9 cycles
 SCF Done:  E(RB3LYP) =  -663.296651711     A.U. after    9 cycles
 SCF Done:  E(RB3LYP) =  -663.296653768     A.U. after    9 cycles
 Optimization completed.
    -- Stationary point found.
 Normal termination of Gaussian 09 at Mon Mar 20 12:38:03 2017.

 -----------------------------------------------------------------
 #P Geom=AllCheck Guess=TCheck SCRF=Check GenChk RB3LYP/MIDIx Freq
 -----------------------------------------------------------------

 Structure from the checkpoint file:  "/scratch/ekwan_da_meta_exo-b3lyp_d3bj-midix-ts/Gau-18166.chk"
 -------------------
 Title Card Required
 -------------------
 Charge =  0 Multiplicity = 1

                         Standard orientation:
 ---------------------------------------------------------------------
 Center     Atomic      Atomic             Coordinates (Angstroms)
 Number     Number       Type             X           Y           Z
 ---------------------------------------------------------------------
      1          6           0       -0.569500    2.286156   -0.198438
      2          1           0       -0.573493    3.239996    0.328687
      3          6           0       -1.777834    1.664101   -0.468458
      4          1           0       -2.716753    2.147834   -0.205104
      5          1           0       -1.855351    0.906287   -1.243964
      6          6           0        0.655660    1.639693   -0.359909
      7          1           0        1.557634    2.094756    0.033980
      8          6           0        0.721911    0.301984   -0.763571
      9          1           0       -0.022611   -0.105124   -1.443047
     10          7           0        1.945417   -0.406037   -0.847964
     11          1           0        1.959751   -1.253020   -1.420136
     12          6           0        2.932528   -0.321074    0.111413
     13          8           0        2.985149    0.490357    1.027516
     14          8           0        3.877696   -1.291553   -0.117278
     15          6           0       -1.647041   -0.112965    0.945239
     16          1           0       -1.958396    0.497770    1.784706
     17          6           0       -0.344635   -0.611901    0.860471
     18          1           0        0.390410   -0.327425    1.609390
     19          1           0       -0.186387   -1.580511    0.391964
     20          6           0       -2.753049   -0.787664    0.248467
     21          8           0       -3.937896   -0.767012    0.540825
     22          8           0       -2.293837   -1.448587   -0.886049
     23          1           0        4.549478   -1.143027    0.600105
     24          1           0       -3.119340   -1.850902   -1.272217
 ---------------------------------------------------------------------

 SCF Done:  E(RB3LYP) =  -663.296653768     A.U. after    1 cycles

 The electronic state is 1-A.
 Alpha  occ. eigenvalues --  -19.07198 -19.06266 -19.00905 -19.00333 -14.28819
 Alpha  occ. eigenvalues --  -10.27971 -10.24204 -10.18245 -10.13220 -10.12921
 Alpha  occ. eigenvalues --  -10.12806 -10.11981 -10.11841  -1.10542  -1.08444
 Alpha  occ. eigenvalues --   -1.01394  -0.99935  -0.94821  -0.82523  -0.78123
 Alpha  occ. eigenvalues --   -0.73538  -0.66623  -0.64643  -0.60301  -0.57288
 Alpha  occ. eigenvalues --   -0.56519  -0.52956  -0.50140  -0.47909  -0.47442
 Alpha  occ. eigenvalues --   -0.47221  -0.45814  -0.44800  -0.43869  -0.43367
 Alpha  occ. eigenvalues --   -0.41515  -0.40394  -0.38885  -0.37898  -0.37565
 Alpha  occ. eigenvalues --   -0.36895  -0.35356  -0.31380  -0.30055  -0.29399
 Alpha  occ. eigenvalues --   -0.27354  -0.25823  -0.23384  -0.21403
 Alpha virt. eigenvalues --   -0.03039  -0.00564   0.05041   0.05835   0.07237
 Alpha virt. eigenvalues --    0.07813   0.09139   0.10830   0.12761   0.13685
 Alpha virt. eigenvalues --    0.14167   0.15708   0.17818   0.18805   0.19714

 Mulliken charges:
               1
     1  C   -0.179710
     2  H    0.164655
     3  C   -0.327622
     4  H    0.175369
     5  H    0.180407
     6  C   -0.170970
     7  H    0.179929
     8  C    0.096824
     9  H    0.196603
    10  N   -0.758238
    11  H    0.324629
    12  C    1.049242
    13  O   -0.599601
    14  O   -0.630067
    15  C   -0.252421
    16  H    0.184504
    17  C   -0.313050
    18  H    0.182412
    19  H    0.176085
    20  C    0.764241
    21  O   -0.585809
    22  O   -0.614177
    23  H    0.388930
    24  H    0.367837
 Sum of Mulliken charges =   0.00000

 Dipole moment (field-independent basis, Debye):
    X=              2.4026    Y=             -1.9127    Z=             -2.0172  Tot=              3.6742
 Quadrupole moment (field-independent basis, Debye-Ang):
   XX=            -78.2758   YY=            -71.7320   ZZ=            -74.3160
   XY=             -5.6901   XZ=              5.2739   YZ=              3.8329

  Exact polarizability: 166.479  -4.404 116.877  -0.710   3.333  81.388
 Approx polarizability: 231.649  -6.037 177.489 -12.074   4.517 125.315

 ******    1 imaginary frequencies (negative Signs) ******

                      1                      2                      3
                      A                      A                      A
 Frequencies --   -487.8640                43.3381                54.9535
 Red. masses --      8.0123                 6.7234                 6.7908
 Frc consts  --      1.1236                 0.0074                 0.0121
 IR Inten    --     32.0026                 2.4770                 0.4675

                      4                      5                      6
                      A                      A                      A
 Frequencies --     70.8718                90.6110               124.1811
 Red. masses --      8.5732                 9.3778                 5.0271
 Frc consts  --      0.0254                 0.0454                 0.0457
 IR Inten    --      1.5676                 0.7845                 0.7532

                      7                      8                      9
                      A                      A                      A
 Frequencies --    173.8101               227.6982               247.9718
 Red. masses --      4.7810                 5.2910                 4.4235
 Frc consts  --      0.0851                 0.1616                 0.1603
 IR Inten    --      1.0871                 2.4730                 5.7243

                     10                     11                     12
                      A                      A                      A
 Frequencies --    303.4860               316.2122               352.3132
 Red. masses --      3.6269                 3.6158                 4.7915
 Frc consts  --      0.1968                 0.2130                 0.3504
 IR Inten    --      0.9950                 0.3397                 2.2343

                     13                     14                     15
                      A                      A                      A
 Frequencies --    367.8765               412.1407               476.6214
 Red. masses --      5.4462                 3.7493                 1.1198
 Frc consts  --      0.4343                 0.3752                 0.1499
 IR Inten    --      9.2263                28.7560               177.3438

                     16                     17                     18
                      A                      A                      A
 Frequencies --    495.8284               533.3689               543.9481
 Red. masses --      2.6583                 3.0387                 1.2702
 Frc consts  --      0.3850                 0.5093                 0.2214
 IR Inten    --     30.3844                55.8829                 6.4169

                     19                     20                     21
                      A                      A                      A
 Frequencies --    556.1708               588.3755               602.8971
 Red. masses --      4.1390                 1.4501                 1.9960
 Frc consts  --      0.7543                 0.2958                 0.4275
 IR Inten    --     28.7376                57.9575                32.1054

                     22                     23                     24
                      A                      A                      A
 Frequencies --    627.9338               730.7915               741.0122
 Red. masses --      2.7318                 9.4145                 1.7777
 Frc consts  --      0.6346                 2.9623                 0.5751
 IR Inten    --     15.6751                33.7331                57.5625

                     25                     26                     27
                      A                      A                      A
 Frequencies --    748.1037               788.8733               828.8512
 Red. masses --      2.4426                 3.5240                 2.7069
 Frc consts  --      0.8054                 1.2921                 1.0957
 IR Inten    --      1.9132                14.6529                11.2095

                     28                     29                     30
                      A                      A                      A
 Frequencies --    860.1141               878.7844               912.5912
 Red. masses --      1.5458                 1.3589                 1.9786
 Frc consts  --      0.6738                 0.6183                 0.9709
 IR Inten    --     10.2754                16.8501                30.4455

                     31                     32                     33
                      A                      A                      A
 Frequencies --    954.0400               993.1869              1024.1751
 Red. masses --      1.9273                 1.1965                 1.4578
 Frc consts  --      1.0336                 0.6954                 0.9009
 IR Inten    --     27.6412                18.4655                76.8191

                     34                     35                     36
                      A                      A                      A
 Frequencies --   1038.8643              1056.6995              1073.4817
 Red. masses --      1.1942                 1.4212                 1.3943
 Frc consts  --      0.7594                 0.9350                 0.9467
 IR Inten    --      6.1334                68.3058                29.1531

                     37                     38                     39
                      A                      A                      A
 Frequencies --   1089.1082              1102.8646              1166.7240
 Red. masses --      1.3340                 2.2112                 2.2358
 Frc consts  --      0.9323                 1.5846                 1.7932
 IR Inten    --     45.0332                 7.3409               571.5091

                     40                     41                     42
                      A                      A                      A
 Frequencies --   1196.1515              1226.7302              1266.6459
 Red. masses --      1.7237                 1.7447                 1.6840
 Frc consts  --      1.4530                 1.5470                 1.5918
 IR Inten    --    162.1596                90.1555                 3.6081

                     43                     44                     45
                      A                      A                      A
 Frequencies --   1304.7295              1325.9144              1358.5946
 Red. masses --      1.5769                 1.5624                 1.8732
 Frc consts  --      1.5816                 1.6184                 2.0371
 IR Inten    --     36.3201                29.9443                52.5681

                     46                     47                     48
                      A                      A                      A
 Frequencies --   1370.6750              1399.0864              1436.1616
 Red. masses --      1.7170                 1.5548                 2.0277
 Frc consts  --      1.9006                 1.7931                 2.4642
 IR Inten    --      4.4378                54.2847                11.0521

                     49                     50                     51
                      A                      A                      A
 Frequencies --   1517.0015              1539.7501              1553.6379
 Red. masses --      1.5401                 1.5248                 1.7926
 Frc consts  --      2.0881                 2.1299                 2.5494
 IR Inten    --    137.6942                95.9654               335.7892

                     52                     53                     54
                      A                      A                      A
 Frequencies --   1604.8723              1612.5922              1805.9378
 Red. masses --      1.9857                 2.4749                 8.0092
 Frc consts  --      3.0133                 3.7919                15.3902
 IR Inten    --      8.1849                11.2415               265.8147

                     55                     56                     57
                      A                      A                      A
 Frequencies --   1809.6221              3152.7009              3153.4104
 Red. masses --      8.7920                 1.0557                 1.0569
 Frc consts  --     16.9633                 6.1826                 6.1922
 IR Inten    --    453.1396                 1.3557                 6.5790

                     58                     59                     60
                      A                      A                      A
 Frequencies --   3160.5332              3180.3851              3222.4220
 Red. masses --      1.0889                 1.0905                 1.0945
 Frc consts  --      6.4085                 6.4987                 6.6959
 IR Inten    --     20.7240                 3.3446                 0.4622

                     61                     62                     63
                      A                      A                      A
 Frequencies --   3232.1785              3234.5125              3242.5566
 Red. masses --      1.1001                 1.1036                 1.1105
 Frc consts  --      6.7712                 6.8026                 6.8793
 IR Inten    --      5.2597                 3.5768                 3.5887

                     64                     65                     66
                      A                      A                      A
 Frequencies --   3480.4139              3501.5182              3537.6002
 Red. masses --      1.0770                 1.0639                 1.0642
 Frc consts  --      7.6864                 7.6857                 7.8469
 IR Inten    --     63.0757                68.6808               116.0087

 - Thermochemistry -
 -------------------
 Temperature   298.150 Kelvin.  Pressure   1.00000 Atm.
 Atom     1 has atomic number  6 and mass  12.00000

 Molecular mass:   185.06881 amu.
 Principal axes and moments of inertia in atomic units:
                           1         2         3
     Eigenvalues --  1208.433654257.628114821.06438
           X            0.99994  -0.01032   0.00354
           Y            0.01025   0.99978   0.01807
           Z           -0.00372  -0.01803   0.99983
 This molecule is an asymmetric top.
 Rotational symmetry number  1.
 Warning -- assumption of classical behavior for rotation
           may cause significant error
 Rotational temperatures (Kelvin)      0.07167     0.02034     0.01797
 Rotational constants (GHZ):           1.49345     0.42388     0.37434
    1 imaginary frequencies ignored.
 Zero-point vibrational energy     494208.5 (Joules/Mol)
                                  118.11866 (Kcal/Mol)
 Warning -- explicit consideration of  20 degrees of freedom as
           vibrations may cause significant error
 Vibrational temperatures:     62.35    79.07   101.97   130.37   178.67
          (Kelvin)            250.07   327.61   356.78   436.65   454.96
                              506.90   529.29   592.98   685.75   713.39
                              767.40   782.62   800.20   846.54   867.43
                              903.46  1051.44  1066.15  1076.35  1135.01
                             1192.53  1237.51  1264.37  1313.01  1372.65
                             1428.97  1473.56  1494.69  1520.35  1544.50
                             1566.98  1586.77  1678.65  1720.99  1764.99
                             1822.42  1877.21  1907.69  1954.71  1972.09
                             2012.97  2066.31  2182.62  2215.35  2235.34
                             2309.05  2320.16  2598.34  2603.64  4536.03
                             4537.05  4547.30  4575.86  4636.34  4650.38
                             4653.74  4665.31  5007.53  5037.90  5089.81

 Zero-point correction=                           0.188234 (Hartree/Particle)
 Thermal correction to Energy=                    0.200929
 Thermal correction to Enthalpy=                  0.201873
 Thermal correction to Gibbs Free Energy=         0.148375
 Sum of electronic and zero-point Energies=           -663.108420
 Sum of electronic and thermal Energies=              -663.095725
 Sum of electronic and thermal Enthalpies=            -663.094781
 Sum of electronic and thermal Free Energies=         -663.148279

                     E (Thermal)             CV                S
                      KCal/Mol        Cal/Mol-Kelvin    Cal/Mol-Kelvin
 Total                  126.085             47.802            112.596
 Electronic               0.000              0.000              0.000
 Translational            0.889              2.981             41.553
 Rotational               0.889              2.981             31.584
 Vibrational            124.307             41.840             39.459
 Vibration     1          0.595              1.980              5.100
 Vibration     2          0.596              1.976              4.631
 Vibration     3          0.598              1.968              4.129
 Vibration     4          0.602              1.956              3.647
 Vibration     5          0.610              1.929              3.034
 Vibration     6          0.627              1.875              2.394
 Vibration     7          0.651              1.799              1.897
 Vibration     8          0.662              1.766              1.745
 Vibration     9          0.695              1.667              1.398
 Vibration    10          0.703              1.643              1.330
 Vibration    11          0.729              1.571              1.156
 Vibration    12          0.740              1.538              1.089
 Vibration    13          0.776              1.444              0.919
 Vibration    14          0.833              1.302              0.719
 Vibration    15          0.851              1.259              0.669
 Vibration    16          0.888              1.176              0.580
 Vibration    17          0.899              1.153              0.557
 Vibration    18          0.912              1.126              0.532
 Vibration    19          0.946              1.057              0.470
 Vibration    20          0.961              1.026              0.445

 Optimization completed.
    -- Stationary point found.
 Normal termination of Gaussian 09 at Mon Mar 20 12:42:04 2017.
