 Gaussian 09, Revision D.01,
 Gaussian 09:  EM64L-G09RevD.01 24-Apr-2013

 ----------------------------------------------------------------------
 #p b3lyp empiricaldispersion=gd3bj 6-31g* scrf=(pcm,solvent=1,4-dioxan
 e) opt=(ts,calcfc,maxstep=5,noeigentest) freq=noraman
 ----------------------------------------------------------------------

 -------------------
 Title Card Required
 -------------------
 Symbolic Z-matrix:
 Charge =  0 Multiplicity = 1

 SCF Done:  E(RB3LYP) =  -745.714558332     A.U. after   14 cycles
 SCF Done:  E(RB3LYP) =  -745.719264874     A.U. after   10 cycles
 SCF Done:  E(RB3LYP) =  -745.722870897     A.U. after   10 cycles
 SCF Done:  E(RB3LYP) =  -745.725508519     A.U. after   10 cycles
 SCF Done:  E(RB3LYP) =  -745.727236406     A.U. after   10 cycles
 SCF Done:  E(RB3LYP) =  -745.728112953     A.U. after   10 cycles
 SCF Done:  E(RB3LYP) =  -745.728255884     A.U. after   10 cycles
 SCF Done:  E(RB3LYP) =  -745.728257895     A.U. after    8 cycles
 Optimization completed.
    -- Stationary point found.
 Normal termination of Gaussian 09 at Mon Mar 20 14:13:37 2017.

 --------------------------------------------------------------------
 #P Geom=AllCheck Guess=TCheck SCRF=Check GenChk RB3LYP/6-31G(d) Freq
 --------------------------------------------------------------------

 Structure from the checkpoint file:  "/scratch/ekwan_da_meta_exo_full-b3lyp_d3bj-631gd-ts/Gau-23815.chk"
 -------------------
 Title Card Required
 -------------------
 Charge =  0 Multiplicity = 1

                         Standard orientation:
 ---------------------------------------------------------------------
 Center     Atomic      Atomic             Coordinates (Angstroms)
 Number     Number       Type             X           Y           Z
 ---------------------------------------------------------------------
      1          6           0       -0.611233    2.513058   -0.442850
      2          1           0       -0.559500    3.520970   -0.036453
      3          6           0       -1.849601    1.908604   -0.566530
      4          1           0       -2.756138    2.454853   -0.324433
      5          1           0       -1.990832    1.061654   -1.228025
      6          6           0        0.590692    1.810343   -0.581588
      7          1           0        1.520884    2.290748   -0.304012
      8          6           0        0.597752    0.430465   -0.802472
      9          1           0       -0.193183   -0.019336   -1.390739
     10          7           0        1.784892   -0.325853   -0.885091
     11          1           0        1.737354   -1.213217   -1.366334
     12          6           0        2.884518   -0.153033   -0.082721
     13          8           0        3.066921    0.762107    0.699925
     14          8           0        3.758953   -1.166006   -0.300912
     15          6           0       -1.682280    0.314287    1.092538
     16          1           0       -1.864674    1.067738    1.847836
     17          6           0       -0.420362   -0.270245    0.967966
     18          1           0        0.373352    0.042604    1.636838
     19          1           0       -0.353975   -1.289742    0.605250
     20          6           0       -2.900990   -0.367937    0.635828
     21          8           0       -4.029261   -0.147369    1.039379
     22          8           0       -2.640711   -1.278516   -0.347590
     23          6           0       -3.789556   -1.974550   -0.849811
     24          1           0       -4.508788   -1.272067   -1.279226
     25          1           0       -3.411731   -2.650950   -1.617254
     26          1           0       -4.279109   -2.538165   -0.051319
     27          6           0        4.969440   -1.090995    0.467580
     28          1           0        4.748197   -1.120253    1.537372
     29          1           0        5.552354   -1.963901    0.173900
     30          1           0        5.514040   -0.171677    0.238188
 ---------------------------------------------------------------------

 SCF Done:  E(RB3LYP) =  -745.728257895     A.U. after    1 cycles

 The electronic state is 1-A.
 Alpha  occ. eigenvalues --  -19.19650 -19.18550 -19.13235 -19.12351 -14.38122
 Alpha  occ. eigenvalues --  -10.34349 -10.30487 -10.24544 -10.24256 -10.23537
 Alpha  occ. eigenvalues --  -10.19521 -10.19452 -10.19291 -10.18678 -10.18576
 Alpha  occ. eigenvalues --   -1.11272  -1.09082  -1.01926  -1.00131  -0.94864
 Alpha  occ. eigenvalues --   -0.81611  -0.77795  -0.74822  -0.71194  -0.70473
 Alpha  occ. eigenvalues --   -0.64739  -0.62298  -0.59685  -0.56280  -0.55387
 Alpha  occ. eigenvalues --   -0.53460  -0.50863  -0.49503  -0.49028  -0.47596
 Alpha  occ. eigenvalues --   -0.46979  -0.46264  -0.44601  -0.43876  -0.43211
 Alpha  occ. eigenvalues --   -0.42682  -0.41882  -0.41044  -0.39235  -0.37797
 Alpha  occ. eigenvalues --   -0.37502  -0.36804  -0.36143  -0.35376  -0.35283
 Alpha  occ. eigenvalues --   -0.30636  -0.30175  -0.29512  -0.28414  -0.26554
 Alpha  occ. eigenvalues --   -0.23290  -0.21403
 Alpha virt. eigenvalues --   -0.03612  -0.00898   0.04519   0.06153   0.07801
 Alpha virt. eigenvalues --    0.09722   0.10950   0.11603   0.12230   0.12634
 Alpha virt. eigenvalues --    0.13062   0.14467   0.15095   0.15627   0.15875

 Mulliken charges:
               1
     1  C   -0.091332
     2  H    0.139131
     3  C   -0.364484
     4  H    0.165822
     5  H    0.172473
     6  C   -0.105457
     7  H    0.167646
     8  C   -0.008507
     9  H    0.183156
    10  N   -0.616401
    11  H    0.356428
    12  C    0.799792
    13  O   -0.523027
    14  O   -0.483461
    15  C   -0.153869
    16  H    0.163356
    17  C   -0.350714
    18  H    0.176594
    19  H    0.168162
    20  C    0.614819
    21  O   -0.525204
    22  O   -0.473765
    23  C   -0.217931
    24  H    0.168605
    25  H    0.161986
    26  H    0.170390
    27  C   -0.215551
    28  H    0.174224
    29  H    0.172374
    30  H    0.174743
 Sum of Mulliken charges =   0.00000

 Dipole moment (field-independent basis, Debye):
    X=              2.7561    Y=             -2.7677    Z=             -2.6249  Tot=              4.7060
 Quadrupole moment (field-independent basis, Debye-Ang):
   XX=            -89.5220   YY=            -81.9246   ZZ=            -88.5931
   XY=             -3.7488   XZ=              7.8991   YZ=              2.5770

  Exact polarizability: 207.426  -5.248 148.055  -4.224  -0.364 105.041
 Approx polarizability: 264.176  -9.169 214.306 -18.806  -3.998 157.771

 ******    1 imaginary frequencies (negative Signs) ******

                      1                      2                      3
                      A                      A                      A
 Frequencies --   -484.9830                34.5330                37.7196
 Red. masses --      8.3014                 4.5147                 4.6912
 Frc consts  --      1.1504                 0.0032                 0.0039
 IR Inten    --     31.1927                 1.4099                 0.3537

                      4                      5                      6
                      A                      A                      A
 Frequencies --     54.9657                69.0171                87.0076
 Red. masses --      6.0494                 4.9065                 3.5413
 Frc consts  --      0.0108                 0.0138                 0.0158
 IR Inten    --      2.6154                 3.0651                 0.3028

                      7                      8                      9
                      A                      A                      A
 Frequencies --    115.7840               124.1013               137.8973
 Red. masses --      1.6249                 2.3572                 1.2748
 Frc consts  --      0.0128                 0.0214                 0.0143
 IR Inten    --      1.8868                 3.3823                 0.0721

                     10                     11                     12
                      A                      A                      A
 Frequencies --    153.7251               186.4292               210.3795
 Red. masses --      2.1650                 4.2066                 5.0445
 Frc consts  --      0.0301                 0.0861                 0.1315
 IR Inten    --      3.1332                 3.5980                 1.3561

                     13                     14                     15
                      A                      A                      A
 Frequencies --    221.1562               244.4203               285.9596
 Red. masses --      3.6839                 3.2624                 4.9466
 Frc consts  --      0.1062                 0.1148                 0.2383
 IR Inten    --      2.7934                 5.3079                 9.2098

                     16                     17                     18
                      A                      A                      A
 Frequencies --    305.3770               344.2355               354.7725
 Red. masses --      3.4126                 3.9854                 4.2442
 Frc consts  --      0.1875                 0.2783                 0.3147
 IR Inten    --     17.3327                 8.1624                13.4247

                     19                     20                     21
                      A                      A                      A
 Frequencies --    380.3403               406.7045               476.0600
 Red. masses --      5.1914                 4.2400                 2.5384
 Frc consts  --      0.4425                 0.4132                 0.3389
 IR Inten    --     22.2501                16.1899                 9.4236

                     22                     23                     24
                      A                      A                      A
 Frequencies --    522.3880               547.2382               576.8661
 Red. masses --      1.3709                 2.2710                 3.4210
 Frc consts  --      0.2204                 0.4007                 0.6707
 IR Inten    --     76.2193                33.4510                 1.8698

                     25                     26                     27
                      A                      A                      A
 Frequencies --    648.3744               659.6161               719.2841
 Red. masses --      3.5255                 3.2398                 1.4238
 Frc consts  --      0.8732                 0.8305                 0.4340
 IR Inten    --      2.1386                 0.8673                31.3693

                     28                     29                     30
                      A                      A                      A
 Frequencies --    741.7295               757.2208               765.3927
 Red. masses --      3.0044                 8.1507                 5.0791
 Frc consts  --      0.9739                 2.7535                 1.7531
 IR Inten    --      9.6065                22.0321                14.3831

                     31                     32                     33
                      A                      A                      A
 Frequencies --    828.3332               845.4722               859.0606
 Red. masses --      1.4778                 1.9014                 2.4365
 Frc consts  --      0.5974                 0.8008                 1.0594
 IR Inten    --      2.6850                39.3964                 2.3062

                     34                     35                     36
                      A                      A                      A
 Frequencies --    898.8281               945.8272               958.6928
 Red. masses --      1.4662                 1.6581                 1.9135
 Frc consts  --      0.6979                 0.8739                 1.0362
 IR Inten    --     39.5456                17.8264                19.0493

                     37                     38                     39
                      A                      A                      A
 Frequencies --    976.9142              1008.0249              1030.1384
 Red. masses --      1.4165                 1.1881                 1.5160
 Frc consts  --      0.7965                 0.7113                 0.9479
 IR Inten    --     16.1026                 8.1542                11.6984

                     40                     41                     42
                      A                      A                      A
 Frequencies --   1032.8939              1049.7300              1066.7453
 Red. masses --      1.8777                 1.4729                 2.1565
 Frc consts  --      1.1803                 0.9563                 1.4458
 IR Inten    --     43.2546                17.0623                27.9824

                     43                     44                     45
                      A                      A                      A
 Frequencies --   1107.4171              1112.5521              1186.5117
 Red. masses --      2.5647                 2.3173                 1.2731
 Frc consts  --      1.8532                 1.6900                 1.0560
 IR Inten    --     88.4627               125.7759                 1.3167

                     46                     47                     48
                      A                      A                      A
 Frequencies --   1188.8524              1213.6768              1216.7093
 Red. masses --      1.2638                 1.5120                 1.4716
 Frc consts  --      1.0524                 1.3122                 1.2835
 IR Inten    --      0.9551                65.3989                19.9799

                     49                     50                     51
                      A                      A                      A
 Frequencies --   1233.0528              1253.1059              1258.4879
 Red. masses --      1.7239                 3.1108                 1.8403
 Frc consts  --      1.5443                 2.8781                 1.7173
 IR Inten    --      2.4355               647.0113                63.8821

                     52                     53                     54
                      A                      A                      A
 Frequencies --   1281.9143              1295.8837              1324.0410
 Red. masses --      3.3624                 1.4426                 1.5496
 Frc consts  --      3.2555                 1.4274                 1.6006
 IR Inten    --    430.6237                57.4708               118.8274

                     55                     56                     57
                      A                      A                      A
 Frequencies --   1378.7578              1425.6154              1486.3563
 Red. masses --      1.5416                 1.6945                 1.2314
 Frc consts  --      1.7267                 2.0291                 1.6028
 IR Inten    --     48.8932                28.8304                63.7617

                     58                     59                     60
                      A                      A                      A
 Frequencies --   1492.8539              1497.8606              1508.9431
 Red. masses --      1.2074                 1.4269                 1.0486
 Frc consts  --      1.5854                 1.8862                 1.4067
 IR Inten    --     24.9079                46.3867                 5.5358

                     61                     62                     63
                      A                      A                      A
 Frequencies --   1510.2980              1522.8781              1524.2328
 Red. masses --      1.0477                 1.0709                 1.0511
 Frc consts  --      1.4080                 1.4632                 1.4388
 IR Inten    --      7.3202                64.4465                10.7034

                     64                     65                     66
                      A                      A                      A
 Frequencies --   1535.6046              1557.5349              1609.3755
 Red. masses --      1.6161                 2.0012                 2.4740
 Frc consts  --      2.2453                 2.8603                 3.7754
 IR Inten    --     21.2630               579.5745                 4.5791

                     67                     68                     69
                      A                      A                      A
 Frequencies --   1619.1109              1787.7943              1808.9741
 Red. masses --      2.6566                10.7835                 9.7520
 Frc consts  --      4.1032                20.3069                18.8021
 IR Inten    --     12.7139               478.3215               267.3951

                     70                     71                     72
                      A                      A                      A
 Frequencies --   3073.4857              3078.5115              3147.1677
 Red. masses --      1.0295                 1.0296                 1.1074
 Frc consts  --      5.7296                 5.7492                 6.4626
 IR Inten    --     47.4614                42.8798                25.6874

                     73                     74                     75
                      A                      A                      A
 Frequencies --   3154.1651              3172.3326              3177.6032
 Red. masses --      1.1081                 1.0705                 1.1067
 Frc consts  --      6.4951                 6.3475                 6.5836
 IR Inten    --     24.2275                15.8336                19.3613

                     76                     77                     78
                      A                      A                      A
 Frequencies --   3178.2996              3178.9136              3186.4793
 Red. masses --      1.0628                 1.0686                 1.1069
 Frc consts  --      6.3256                 6.3626                 6.6218
 IR Inten    --      2.6034                13.8302                19.7678

                     79                     80                     81
                      A                      A                      A
 Frequencies --   3213.5980              3237.0005              3242.5282
 Red. masses --      1.0903                 1.0920                 1.0899
 Frc consts  --      6.6341                 6.7415                 6.7513
 IR Inten    --      5.1731                 2.0151                 1.0343

                     82                     83                     84
                      A                      A                      A
 Frequencies --   3255.9284              3267.1482              3625.9257
 Red. masses --      1.1163                 1.1157                 1.0773
 Frc consts  --      6.9724                 7.0170                 8.3449
 IR Inten    --      9.4406                 3.7549                53.2238

 - Thermochemistry -
 -------------------
 Temperature   298.150 Kelvin.  Pressure   1.00000 Atm.
 Atom     1 has atomic number  6 and mass  12.00000

 Molecular mass:   213.10011 amu.
 Principal axes and moments of inertia in atomic units:
                           1         2         3
     Eigenvalues --  1616.301046521.194327296.39814
           X            0.99993  -0.00205   0.01171
           Y            0.00184   0.99984   0.01806
           Z           -0.01175  -0.01804   0.99977
 This molecule is an asymmetric top.
 Rotational symmetry number  1.
 Warning -- assumption of classical behavior for rotation
           may cause significant error
 Rotational temperatures (Kelvin)      0.05359     0.01328     0.01187
 Rotational constants (GHZ):           1.11659     0.27675     0.24735
    1 imaginary frequencies ignored.
 Zero-point vibrational energy     644768.3 (Joules/Mol)
                                  154.10332 (Kcal/Mol)
 Warning -- explicit consideration of  23 degrees of freedom as
           vibrations may cause significant error
 Vibrational temperatures:     49.69    54.27    79.08    99.30   125.18
          (Kelvin)            166.59   178.55   198.40   221.18   268.23
                              302.69   318.19   351.67   411.43   439.37
                              495.28   510.44   547.22   585.16   684.94
                              751.60   787.35   829.98   932.86   949.04
                             1034.89  1067.18  1089.47  1101.23  1191.79
                             1216.44  1236.00  1293.21  1360.83  1379.34
                             1405.56  1450.32  1482.14  1486.10  1510.33
                             1534.81  1593.32  1600.71  1707.12  1710.49
                             1746.21  1750.57  1774.09  1802.94  1810.68
                             1844.39  1864.49  1905.00  1983.72  2051.14
                             2138.53  2147.88  2155.08  2171.03  2172.98
                             2191.08  2193.03  2209.39  2240.94  2315.53
                             2329.54  2572.23  2602.71  4422.05  4429.29
                             4528.07  4538.13  4564.27  4571.86  4572.86
                             4573.74  4584.63  4623.65  4657.32  4665.27
                             4684.55  4700.69  5216.89

 Zero-point correction=                           0.245579 (Hartree/Particle)
 Thermal correction to Energy=                    0.261834
 Thermal correction to Enthalpy=                  0.262778
 Thermal correction to Gibbs Free Energy=         0.200452
 Sum of electronic and zero-point Energies=           -745.482679
 Sum of electronic and thermal Energies=              -745.466424
 Sum of electronic and thermal Enthalpies=            -745.465480
 Sum of electronic and thermal Free Energies=         -745.527806

                     E (Thermal)             CV                S
                      KCal/Mol        Cal/Mol-Kelvin    Cal/Mol-Kelvin
 Total                  164.303             58.342            131.176
 Electronic               0.000              0.000              0.000
 Translational            0.889              2.981             41.973
 Rotational               0.889              2.981             32.708
 Vibrational            162.526             52.380             56.494
 Vibration     1          0.594              1.983              5.550
 Vibration     2          0.594              1.982              5.375
 Vibration     3          0.596              1.976              4.630
 Vibration     4          0.598              1.969              4.181
 Vibration     5          0.601              1.958              3.726
 Vibration     6          0.608              1.936              3.170
 Vibration     7          0.610              1.929              3.035
 Vibration     8          0.614              1.915              2.833
 Vibration     9          0.619              1.899              2.626
 Vibration    10          0.632              1.858              2.263
 Vibration    11          0.643              1.825              2.040
 Vibration    12          0.648              1.809              1.950
 Vibration    13          0.660              1.772              1.770
 Vibration    14          0.684              1.700              1.498
 Vibration    15          0.696              1.664              1.387
 Vibration    16          0.723              1.587              1.192
 Vibration    17          0.731              1.565              1.145
 Vibration    18          0.750              1.512              1.038
 Vibration    19          0.771              1.456              0.938
 Vibration    20          0.833              1.303              0.721
 Vibration    21          0.877              1.200              0.604
 Vibration    22          0.902              1.146              0.550
 Vibration    23          0.933              1.081              0.491

 Normal termination of Gaussian 09 at Mon Mar 20 14:26:41 2017.
