 Gaussian 09, Revision D.01,
 Gaussian 09:  EM64L-G09RevD.01 24-Apr-2013

 ----------------------------------------------------------------------
 #p b3lyp empiricaldispersion=gd3bj 6-31g* scrf=(pcm,solvent=1,4-dioxan
 e) opt=(ts,calcfc,maxstep=5,noeigentest) freq=noraman
 ----------------------------------------------------------------------

 -------------------
 Title Card Required
 -------------------
 Symbolic Z-matrix:
 Charge =  0 Multiplicity = 1

 SCF Done:  E(RB3LYP) =  -667.105556662     A.U. after   14 cycles
 SCF Done:  E(RB3LYP) =  -667.106974081     A.U. after   11 cycles
 SCF Done:  E(RB3LYP) =  -667.107829152     A.U. after   11 cycles
 SCF Done:  E(RB3LYP) =  -667.108168470     A.U. after   11 cycles
 SCF Done:  E(RB3LYP) =  -667.108180768     A.U. after   10 cycles
 SCF Done:  E(RB3LYP) =  -667.108180888     A.U. after    7 cycles
 Optimization completed.
    -- Stationary point found.
 Normal termination of Gaussian 09 at Mon Mar 20 13:31:31 2017.

 --------------------------------------------------------------------
 #P Geom=AllCheck Guess=TCheck SCRF=Check GenChk RB3LYP/6-31G(d) Freq
 --------------------------------------------------------------------

 Structure from the checkpoint file:  "/scratch/ekwan_da_meta_exo-b3lyp_d3bj-631gd-ts/Gau-22382.chk"
 -------------------
 Title Card Required
 -------------------
 Charge =  0 Multiplicity = 1

                         Standard orientation:
 ---------------------------------------------------------------------
 Center     Atomic      Atomic             Coordinates (Angstroms)
 Number     Number       Type             X           Y           Z
 ---------------------------------------------------------------------
      1          6           0       -0.544510    2.289479   -0.201871
      2          1           0       -0.561517    3.231047    0.342845
      3          6           0       -1.746586    1.687868   -0.527771
      4          1           0       -2.688371    2.176226   -0.297220
      5          1           0       -1.800338    0.938361   -1.308771
      6          6           0        0.686142    1.633823   -0.319596
      7          1           0        1.571053    2.086335    0.111019
      8          6           0        0.755636    0.298656   -0.726283
      9          1           0        0.040031   -0.077110   -1.447870
     10          7           0        1.970552   -0.416200   -0.799100
     11          1           0        2.001258   -1.217370   -1.414300
     12          6           0        2.987345   -0.329697    0.111316
     13          8           0        3.069949    0.461188    1.034023
     14          8           0        3.931945   -1.269890   -0.162521
     15          6           0       -1.674933   -0.130088    0.910343
     16          1           0       -1.952539    0.508402    1.738660
     17          6           0       -0.385514   -0.660159    0.824289
     18          1           0        0.331019   -0.426892    1.603727
     19          1           0       -0.249251   -1.618588    0.335981
     20          6           0       -2.815504   -0.764437    0.243017
     21          8           0       -3.988715   -0.620973    0.538725
     22          8           0       -2.440259   -1.543582   -0.819390
     23          1           0        4.628030   -1.149346    0.506632
     24          1           0       -3.269052   -1.904288   -1.184358
 ---------------------------------------------------------------------

 SCF Done:  E(RB3LYP) =  -667.108180888     A.U. after    1 cycles

 The electronic state is 1-A.
 Alpha  occ. eigenvalues --  -19.20141 -19.18857 -19.13584 -19.12676 -14.38602
 Alpha  occ. eigenvalues --  -10.35088 -10.31165 -10.24885 -10.19822 -10.19794
 Alpha  occ. eigenvalues --  -10.19667 -10.19054 -10.18885  -1.11677  -1.09322
 Alpha  occ. eigenvalues --   -1.02068  -1.00141  -0.95286  -0.81839  -0.77566
 Alpha  occ. eigenvalues --   -0.73592  -0.67070  -0.64944  -0.60761  -0.58496
 Alpha  occ. eigenvalues --   -0.57744  -0.53530  -0.50631  -0.48308  -0.48148
 Alpha  occ. eigenvalues --   -0.47625  -0.46595  -0.45020  -0.44233  -0.43788
 Alpha  occ. eigenvalues --   -0.42354  -0.41432  -0.39237  -0.38177  -0.37900
 Alpha  occ. eigenvalues --   -0.37188  -0.35864  -0.32752  -0.31385  -0.30293
 Alpha  occ. eigenvalues --   -0.28779  -0.26877  -0.23689  -0.21833
 Alpha virt. eigenvalues --   -0.04108  -0.01157   0.04348   0.05871   0.07259
 Alpha virt. eigenvalues --    0.07494   0.08922   0.11055   0.12612   0.13126
 Alpha virt. eigenvalues --    0.14148   0.15849   0.18104   0.19214   0.19709

 Mulliken charges:
               1
     1  C   -0.090891
     2  H    0.141538
     3  C   -0.363185
     4  H    0.168263
     5  H    0.174867
     6  C   -0.102616
     7  H    0.169932
     8  C   -0.010545
     9  H    0.186519
    10  N   -0.589844
    11  H    0.361803
    12  C    0.734866
    13  O   -0.509506
    14  O   -0.598617
    15  C   -0.144699
    16  H    0.165591
    17  C   -0.350495
    18  H    0.179283
    19  H    0.173038
    20  C    0.567772
    21  O   -0.513276
    22  O   -0.596472
    23  H    0.432220
    24  H    0.414453
 Sum of Mulliken charges =   0.00000

 Dipole moment (field-independent basis, Debye):
    X=              2.7122    Y=             -1.6525    Z=             -2.4733  Tot=              4.0254
 Quadrupole moment (field-independent basis, Debye-Ang):
   XX=            -81.4711   YY=            -70.7387   ZZ=            -74.1168
   XY=             -5.4147   XZ=              5.2162   YZ=              3.2642

  Exact polarizability: 176.101  -3.664 122.818  -0.201   3.587  84.258
 Approx polarizability: 241.221  -4.201 187.035  -9.321   2.732 128.461

 ******    1 imaginary frequencies (negative Signs) ******

                      1                      2                      3
                      A                      A                      A
 Frequencies --   -482.8311                35.7494                50.4697
 Red. masses --      8.2563                 7.0432                 6.2453
 Frc consts  --      1.1340                 0.0053                 0.0094
 IR Inten    --     28.9648                 3.5128                 0.5987

                      4                      5                      6
                      A                      A                      A
 Frequencies --     67.2534                84.8049               116.9640
 Red. masses --      9.3842                 8.3827                 5.3522
 Frc consts  --      0.0250                 0.0355                 0.0431
 IR Inten    --      1.1653                 1.7580                 0.9318

                      7                      8                      9
                      A                      A                      A
 Frequencies --    155.6929               208.0302               235.4360
 Red. masses --      4.6006                 5.3085                 4.3180
 Frc consts  --      0.0657                 0.1354                 0.1410
 IR Inten    --      1.2562                 3.1455                 6.0699

                     10                     11                     12
                      A                      A                      A
 Frequencies --    290.1769               306.7507               353.0858
 Red. masses --      3.7642                 3.4260                 4.6083
 Frc consts  --      0.1867                 0.1899                 0.3385
 IR Inten    --      1.6257                 0.3589                 2.2152

                     13                     14                     15
                      A                      A                      A
 Frequencies --    369.9244               398.7674               477.5057
 Red. masses --      5.4056                 3.8487                 2.5881
 Frc consts  --      0.4358                 0.3606                 0.3477
 IR Inten    --      6.7985                29.8982                19.4846

                     16                     17                     18
                      A                      A                      A
 Frequencies --    488.3127               533.5388               556.4635
 Red. masses --      1.1207                 3.0769                 1.2162
 Frc consts  --      0.1574                 0.5161                 0.2219
 IR Inten    --    199.8450                56.2237                 7.9366

                     19                     20                     21
                      A                      A                      A
 Frequencies --    568.5724               585.0926               595.3463
 Red. masses --      3.3644                 1.7814                 1.7672
 Frc consts  --      0.6408                 0.3593                 0.3690
 IR Inten    --     18.8653                79.8508                51.5989

                     22                     23                     24
                      A                      A                      A
 Frequencies --    611.2898               717.8382               743.9999
 Red. masses --      2.8482                 1.3754                 2.8784
 Frc consts  --      0.6271                 0.4176                 0.9387
 IR Inten    --     24.0604                31.7552                19.7138

                     25                     26                     27
                      A                      A                      A
 Frequencies --    760.1589               781.6013               828.5350
 Red. masses --      9.5558                 4.3263                 1.7601
 Frc consts  --      3.2533                 1.5572                 0.7119
 IR Inten    --     34.0990                18.8298                 8.8192

                     28                     29                     30
                      A                      A                      A
 Frequencies --    854.0652               859.2337               896.2220
 Red. masses --      1.6120                 1.8397                 1.5812
 Frc consts  --      0.6928                 0.8002                 0.7483
 IR Inten    --      1.5189                30.3673                35.9407

                     31                     32                     33
                      A                      A                      A
 Frequencies --    947.4193               961.0012               992.3952
 Red. masses --      2.2325                 1.2887                 1.3967
 Frc consts  --      1.1806                 0.7012                 0.8105
 IR Inten    --      8.5652                14.5519                40.8548

                     34                     35                     36
                      A                      A                      A
 Frequencies --   1010.9182              1037.2251              1053.8666
 Red. masses --      1.1598                 1.2956                 1.4729
 Frc consts  --      0.6983                 0.8213                 0.9638
 IR Inten    --      6.0816                36.1133                 7.9827

                     37                     38                     39
                      A                      A                      A
 Frequencies --   1067.4199              1099.4468              1170.6072
 Red. masses --      1.3039                 2.1067                 2.2545
 Frc consts  --      0.8753                 1.5004                 1.8202
 IR Inten    --     86.1162                 4.2152               554.2923

                     40                     41                     42
                      A                      A                      A
 Frequencies --   1204.1696              1221.3985              1258.6065
 Red. masses --      1.6864                 1.7462                 1.6602
 Frc consts  --      1.4407                 1.5348                 1.5495
 IR Inten    --    254.0945                83.6822                 7.2551

                     43                     44                     45
                      A                      A                      A
 Frequencies --   1293.0572              1316.5125              1358.7226
 Red. masses --      1.4447                 1.5599                 1.8585
 Frc consts  --      1.4232                 1.5929                 2.0215
 IR Inten    --     32.6119                35.8897                77.0379

                     46                     47                     48
                      A                      A                      A
 Frequencies --   1363.2670              1382.8006              1437.0430
 Red. masses --      1.7381                 1.5378                 1.9720
 Frc consts  --      1.9032                 1.7325                 2.3994
 IR Inten    --     19.6108                52.7356                43.8314

                     49                     50                     51
                      A                      A                      A
 Frequencies --   1496.5177              1536.4049              1565.8736
 Red. masses --      1.5299                 1.6134                 2.2752
 Frc consts  --      2.0188                 2.2438                 3.2869
 IR Inten    --     72.3745                22.9755               569.7868

                     52                     53                     54
                      A                      A                      A
 Frequencies --   1609.3555              1621.4978              1804.4057
 Red. masses --      2.4437                 2.5634                 8.9481
 Frc consts  --      3.7290                 3.9711                17.1652
 IR Inten    --      5.8217                10.8080               595.4743

                     55                     56                     57
                      A                      A                      A
 Frequencies --   1823.3405              3174.1780              3177.4269
 Red. masses --      8.5485                 1.0730                 1.0563
 Frc consts  --     16.7446                 6.3695                 6.2830
 IR Inten    --    356.6909                15.6340                 2.8442

                     58                     59                     60
                      A                      A                      A
 Frequencies --   3180.4549              3211.2517              3240.8972
 Red. masses --      1.0729                 1.0905                 1.0925
 Frc consts  --      6.3940                 6.6258                 6.7611
 IR Inten    --     10.2579                 4.4623                 1.2978

                     61                     62                     63
                      A                      A                      A
 Frequencies --   3241.7336              3258.5221              3266.6818
 Red. masses --      1.0901                 1.1164                 1.1152
 Frc consts  --      6.7495                 6.9842                 7.0116
 IR Inten    --      1.1026                 8.8928                 2.9314

                     64                     65                     66
                      A                      A                      A
 Frequencies --   3626.0071              3700.4148              3735.6915
 Red. masses --      1.0775                 1.0644                 1.0649
 Frc consts  --      8.3470                 8.5873                 8.7560
 IR Inten    --     59.6967                84.2966               136.9181

 - Thermochemistry -
 -------------------
 Temperature   298.150 Kelvin.  Pressure   1.00000 Atm.
 Atom     1 has atomic number  6 and mass  12.00000

 Molecular mass:   185.06881 amu.
 Principal axes and moments of inertia in atomic units:
                           1         2         3
     Eigenvalues --  1198.232874399.282954985.92057
           X            0.99995  -0.00930   0.00319
           Y            0.00925   0.99983   0.01566
           Z           -0.00334  -0.01563   0.99987
 This molecule is an asymmetric top.
 Rotational symmetry number  1.
 Warning -- assumption of classical behavior for rotation
           may cause significant error
 Rotational temperatures (Kelvin)      0.07228     0.01969     0.01737
 Rotational constants (GHZ):           1.50617     0.41024     0.36197
    1 imaginary frequencies ignored.
 Zero-point vibrational energy     496315.1 (Joules/Mol)
                                  118.62217 (Kcal/Mol)
 Warning -- explicit consideration of  21 degrees of freedom as
           vibrations may cause significant error
 Vibrational temperatures:     51.44    72.61    96.76   122.02   168.28
          (Kelvin)            224.01   299.31   338.74   417.50   441.35
                              508.01   532.24   573.74   687.02   702.57
                              767.64   800.63   818.05   841.82   856.57
                              879.51  1032.81  1070.45  1093.70  1124.55
                             1192.08  1228.81  1236.24  1289.46  1363.12
                             1382.66  1427.83  1454.48  1492.33  1516.28
                             1535.78  1581.86  1684.24  1732.53  1757.32
                             1810.85  1860.42  1894.17  1954.90  1961.43
                             1989.54  2067.58  2153.15  2210.54  2252.94
                             2315.50  2332.97  2596.13  2623.38  4566.93
                             4571.60  4575.96  4620.27  4662.92  4664.13
                             4688.28  4700.02  5217.01  5324.06  5374.82

 Zero-point correction=                           0.189036 (Hartree/Particle)
 Thermal correction to Energy=                    0.201943
 Thermal correction to Enthalpy=                  0.202887
 Thermal correction to Gibbs Free Energy=         0.148589
 Sum of electronic and zero-point Energies=           -666.919144
 Sum of electronic and thermal Energies=              -666.906238
 Sum of electronic and thermal Enthalpies=            -666.905294
 Sum of electronic and thermal Free Energies=         -666.959592

                     E (Thermal)             CV                S
                      KCal/Mol        Cal/Mol-Kelvin    Cal/Mol-Kelvin
 Total                  126.721             48.230            114.280
 Electronic               0.000              0.000              0.000
 Translational            0.889              2.981             41.553
 Rotational               0.889              2.981             31.642
 Vibrational            124.944             42.268             41.085
 Vibration     1          0.594              1.982              5.482
 Vibration     2          0.595              1.977              4.799
 Vibration     3          0.598              1.970              4.232
 Vibration     4          0.601              1.960              3.776
 Vibration     5          0.608              1.935              3.150
 Vibration     6          0.620              1.896              2.601
 Vibration     7          0.641              1.828              2.061
 Vibration     8          0.655              1.787              1.837
 Vibration     9          0.686              1.692              1.473
 Vibration    10          0.697              1.661              1.380
 Vibration    11          0.729              1.569              1.152
 Vibration    12          0.742              1.534              1.080
 Vibration    13          0.765              1.473              0.967
 Vibration    14          0.834              1.300              0.717
 Vibration    15          0.844              1.276              0.688
 Vibration    16          0.889              1.176              0.579
 Vibration    17          0.912              1.126              0.531
 Vibration    18          0.925              1.099              0.507
 Vibration    19          0.942              1.064              0.476
 Vibration    20          0.953              1.042              0.458
 Vibration    21          0.970              1.008              0.431

 Normal termination of Gaussian 09 at Mon Mar 20 13:38:41 2017.
