 Gaussian 09, Revision D.01,
 Gaussian 09:  EM64L-G09RevD.01 24-Apr-2013

 ----------------------------------------------------------------------
 #p b3lyp empiricaldispersion=gd3bj 6-31g* scrf=(pcm,solvent=1,4-dioxan
 e) opt=(ts,calcfc,maxstep=5,noeigentest) freq=noraman
 ----------------------------------------------------------------------

 -------------------
 Title Card Required
 -------------------
 Symbolic Z-matrix:
 Charge =  0 Multiplicity = 1

 SCF Done:  E(RB3LYP) =  -667.104916663     A.U. after   14 cycles
 SCF Done:  E(RB3LYP) =  -667.106369756     A.U. after   11 cycles
 SCF Done:  E(RB3LYP) =  -667.107212713     A.U. after   11 cycles
 SCF Done:  E(RB3LYP) =  -667.107575924     A.U. after   11 cycles
 SCF Done:  E(RB3LYP) =  -667.107617449     A.U. after   10 cycles
 SCF Done:  E(RB3LYP) =  -667.107619052     A.U. after    9 cycles
 SCF Done:  E(RB3LYP) =  -667.107619198     A.U. after    8 cycles
 SCF Done:  E(RB3LYP) =  -667.107619035     A.U. after    7 cycles
 Optimization completed.
    -- Stationary point found.
 Normal termination of Gaussian 09 at Mon Mar 20 13:26:24 2017.

 --------------------------------------------------------------------
 #P Geom=AllCheck Guess=TCheck SCRF=Check GenChk RB3LYP/6-31G(d) Freq
 --------------------------------------------------------------------

 Structure from the checkpoint file:  "/scratch/ekwan_da_meta_endo-b3lyp_d3bj-631gd-midix-ts/Gau-22997.chk"
 -------------------
 Title Card Required
 -------------------
 Charge =  0 Multiplicity = 1

                         Standard orientation:
 ---------------------------------------------------------------------
 Center     Atomic      Atomic             Coordinates (Angstroms)
 Number     Number       Type             X           Y           Z
 ---------------------------------------------------------------------
      1          6           0        1.000024    1.556154   -1.070112
      2          1           0        1.438291    1.431138   -2.056977
      3          6           0        1.839578    1.806370    0.001556
      4          1           0        2.903276    1.954273   -0.156136
      5          1           0        1.457071    2.212872    0.930528
      6          6           0       -0.341230    1.193018   -0.910693
      7          1           0       -0.888373    0.805118   -1.760982
      8          6           0       -0.903728    1.054557    0.360058
      9          1           0       -0.579171    1.715678    1.154468
     10          7           0       -2.231372    0.626095    0.571413
     11          1           0       -2.666861    0.877114    1.447983
     12          6           0       -2.862959   -0.356791   -0.140415
     13          8           0       -2.448202   -0.907354   -1.143890
     14          8           0       -4.062699   -0.641739    0.435946
     15          6           0        1.697063   -0.195102    1.113715
     16          1           0        2.223386    0.217900    1.966793
     17          6           0        0.339637   -0.505737    1.210601
     18          1           0       -0.145808   -0.399761    2.176088
     19          1           0       -0.079573   -1.257508    0.553127
     20          6           0        2.587699   -0.848130    0.145551
     21          8           0        3.806722   -0.859184    0.202890
     22          8           0        1.914895   -1.465237   -0.864253
     23          1           0       -4.465463   -1.332656   -0.118256
     24          1           0        2.600586   -1.844752   -1.443637
 ---------------------------------------------------------------------

 SCF Done:  E(RB3LYP) =  -667.107619035     A.U. after    1 cycles

 The electronic state is 1-A.
 Alpha  occ. eigenvalues --  -19.20092 -19.18108 -19.13518 -19.11920 -14.38609
 Alpha  occ. eigenvalues --  -10.35024 -10.30639 -10.24916 -10.19861 -10.19788
 Alpha  occ. eigenvalues --  -10.19498 -10.18912 -10.18775  -1.11619  -1.08765
 Alpha  occ. eigenvalues --   -1.02019  -0.99444  -0.95275  -0.81783  -0.77313
 Alpha  occ. eigenvalues --   -0.73577  -0.67023  -0.64687  -0.60690  -0.58283
 Alpha  occ. eigenvalues --   -0.57704  -0.53374  -0.50565  -0.48233  -0.47742
 Alpha  occ. eigenvalues --   -0.47268  -0.46300  -0.44879  -0.44356  -0.43203
 Alpha  occ. eigenvalues --   -0.42695  -0.41420  -0.38634  -0.38041  -0.37449
 Alpha  occ. eigenvalues --   -0.37066  -0.35725  -0.32591  -0.30673  -0.30197
 Alpha  occ. eigenvalues --   -0.28689  -0.26379  -0.23551  -0.21769
 Alpha virt. eigenvalues --   -0.03711  -0.00900   0.04341   0.05886   0.07287
 Alpha virt. eigenvalues --    0.07706   0.08861   0.11499   0.11742   0.13369
 Alpha virt. eigenvalues --    0.13600   0.15850   0.18403   0.18698   0.20968

 Mulliken charges:
               1
     1  C   -0.084916
     2  H    0.141420
     3  C   -0.357071
     4  H    0.171871
     5  H    0.161140
     6  C   -0.093640
     7  H    0.171547
     8  C   -0.009825
     9  H    0.176187
    10  N   -0.589042
    11  H    0.360082
    12  C    0.734376
    13  O   -0.505526
    14  O   -0.599637
    15  C   -0.161601
    16  H    0.158915
    17  C   -0.348928
    18  H    0.154249
    19  H    0.195411
    20  C    0.586652
    21  O   -0.525365
    22  O   -0.580725
    23  H    0.432169
    24  H    0.412260
 Sum of Mulliken charges =   0.00000

 Dipole moment (field-independent basis, Debye):
    X=             -3.8405    Y=              1.4493    Z=              1.7680  Tot=              4.4694
 Quadrupole moment (field-independent basis, Debye-Ang):
   XX=            -80.3006   YY=            -72.7087   ZZ=            -69.6252
   XY=              4.0621   XZ=             -7.9383   YZ=              4.2666

  Exact polarizability: 169.057   8.833  99.844  -0.528  -1.377 106.908
 Approx polarizability: 235.191  10.743 146.182   3.007  -9.625 167.347

 ******    1 imaginary frequencies (negative Signs) ******

                      1                      2                      3
                      A                      A                      A
 Frequencies --   -483.0826                31.5930                58.8159
 Red. masses --      8.2133                 8.3642                 6.9416
 Frc consts  --      1.1293                 0.0049                 0.0141
 IR Inten    --     29.3472                 1.4182                 3.6843

                      4                      5                      6
                      A                      A                      A
 Frequencies --     69.3863               102.1166               124.1664
 Red. masses --      7.6199                 8.0937                 5.1638
 Frc consts  --      0.0216                 0.0497                 0.0469
 IR Inten    --      0.5908                 1.6085                 0.8511

                      7                      8                      9
                      A                      A                      A
 Frequencies --    160.8801               197.2949               248.1581
 Red. masses --      5.0550                 5.6373                 3.8340
 Frc consts  --      0.0771                 0.1293                 0.1391
 IR Inten    --      2.5352                 1.5715                 2.5135

                     10                     11                     12
                      A                      A                      A
 Frequencies --    298.1134               315.5568               354.2504
 Red. masses --      3.8922                 3.6457                 4.5240
 Frc consts  --      0.2038                 0.2139                 0.3345
 IR Inten    --      1.5427                 1.9409                 3.6009

                     13                     14                     15
                      A                      A                      A
 Frequencies --    377.5686               403.4599               476.9946
 Red. masses --      4.5605                 4.1315                 2.5613
 Frc consts  --      0.3831                 0.3962                 0.3433
 IR Inten    --      5.9085                25.4420                26.3342

                     16                     17                     18
                      A                      A                      A
 Frequencies --    490.3367               532.4235               558.0030
 Red. masses --      1.1072                 2.9360                 1.2294
 Frc consts  --      0.1568                 0.4904                 0.2255
 IR Inten    --    209.5493                37.2853                10.1795

                     19                     20                     21
                      A                      A                      A
 Frequencies --    565.0442               589.2639               594.0445
 Red. masses --      3.3213                 2.7085                 1.3627
 Frc consts  --      0.6248                 0.5541                 0.2833
 IR Inten    --     19.7590                46.6615                67.9693

                     22                     23                     24
                      A                      A                      A
 Frequencies --    609.7960               705.2121               732.2164
 Red. masses --      2.8168                 1.4704                 1.9765
 Frc consts  --      0.6171                 0.4309                 0.6243
 IR Inten    --     26.1927                65.8690                12.6489

                     25                     26                     27
                      A                      A                      A
 Frequencies --    759.5539               784.8796               795.9798
 Red. masses --      9.1972                 4.3021                 2.0279
 Frc consts  --      3.1262                 1.5615                 0.7570
 IR Inten    --     41.3571                 6.7433                 4.9025

                     28                     29                     30
                      A                      A                      A
 Frequencies --    863.2301               864.4603               911.9073
 Red. masses --      1.5533                 1.9358                 1.6849
 Frc consts  --      0.6820                 0.8523                 0.8255
 IR Inten    --     19.1416                 5.7205                23.5633

                     31                     32                     33
                      A                      A                      A
 Frequencies --    938.0374               954.8735               987.5172
 Red. masses --      1.3750                 1.7420                 1.3488
 Frc consts  --      0.7129                 0.9358                 0.7750
 IR Inten    --      9.1770                25.5008                10.1948

                     34                     35                     36
                      A                      A                      A
 Frequencies --   1005.0565              1034.2470              1050.5078
 Red. masses --      1.2522                 1.2486                 1.5139
 Frc consts  --      0.7453                 0.7869                 0.9843
 IR Inten    --     18.6520                 7.3504                 1.8303

                     37                     38                     39
                      A                      A                      A
 Frequencies --   1070.8701              1100.7167              1167.5617
 Red. masses --      1.3287                 2.1632                 2.2628
 Frc consts  --      0.8977                 1.5442                 1.8175
 IR Inten    --     80.3883                 7.5481               554.3971

                     40                     41                     42
                      A                      A                      A
 Frequencies --   1206.6583              1225.9693              1261.7707
 Red. masses --      1.6488                 1.8008                 1.7329
 Frc consts  --      1.4145                 1.5947                 1.6255
 IR Inten    --    195.4751                73.3327                17.8324

                     43                     44                     45
                      A                      A                      A
 Frequencies --   1291.9215              1319.8703              1364.9230
 Red. masses --      1.4318                 1.5690                 1.6845
 Frc consts  --      1.4080                 1.6104                 1.8490
 IR Inten    --     33.1247                33.7262                17.0515

                     46                     47                     48
                      A                      A                      A
 Frequencies --   1368.3760              1384.6002              1434.3784
 Red. masses --      1.9111                 1.4984                 2.0569
 Frc consts  --      2.1084                 1.6925                 2.4935
 IR Inten    --     68.7345                46.3854                45.2254

                     49                     50                     51
                      A                      A                      A
 Frequencies --   1496.1698              1537.8712              1569.4597
 Red. masses --      1.5191                 1.6386                 2.2401
 Frc consts  --      2.0036                 2.2834                 3.2510
 IR Inten    --     74.7617                16.7771               569.4867

                     52                     53                     54
                      A                      A                      A
 Frequencies --   1607.3215              1621.9020              1796.8957
 Red. masses --      2.5223                 2.5588                 8.8673
 Frc consts  --      3.8392                 3.9658                16.8688
 IR Inten    --      4.2715                 9.0183               550.2737

                     55                     56                     57
                      A                      A                      A
 Frequencies --   1825.7952              3169.2227              3177.9718
 Red. masses --      8.5662                 1.0586                 1.0587
 Frc consts  --     16.8245                 6.2645                 6.2999
 IR Inten    --    346.3166                 9.1758                 8.6830

                     58                     59                     60
                      A                      A                      A
 Frequencies --   3185.9880              3215.9558              3218.1004
 Red. masses --      1.0882                 1.0895                 1.0907
 Frc consts  --      6.5080                 6.6391                 6.6550
 IR Inten    --     13.1129                 8.1852                 3.2320

                     61                     62                     63
                      A                      A                      A
 Frequencies --   3245.6701              3257.7985              3268.7193
 Red. masses --      1.0899                 1.1162                 1.1134
 Frc consts  --      6.7647                 6.9795                 7.0091
 IR Inten    --      0.6417                 7.9009                 3.1454

                     64                     65                     66
                      A                      A                      A
 Frequencies --   3627.2763              3702.3907              3736.2794
 Red. masses --      1.0776                 1.0643                 1.0649
 Frc consts  --      8.3532                 8.5958                 8.7590
 IR Inten    --     62.6779                72.9634               132.1742

 - Thermochemistry -
 -------------------
 Temperature   298.150 Kelvin.  Pressure   1.00000 Atm.
 Atom     1 has atomic number  6 and mass  12.00000

 Molecular mass:   185.06881 amu.
 Principal axes and moments of inertia in atomic units:
                           1         2         3
     Eigenvalues --  1171.062014191.002504490.20599
           X            0.99994   0.01039  -0.00423
           Y           -0.01027   0.99956   0.02794
           Z            0.00452  -0.02790   0.99960
 This molecule is an asymmetric top.
 Rotational symmetry number  1.
 Warning -- assumption of classical behavior for rotation
           may cause significant error
 Rotational temperatures (Kelvin)      0.07396     0.02067     0.01929
 Rotational constants (GHZ):           1.54111     0.43062     0.40193
    1 imaginary frequencies ignored.
 Zero-point vibrational energy     496470.3 (Joules/Mol)
                                  118.65925 (Kcal/Mol)
 Warning -- explicit consideration of  21 degrees of freedom as
           vibrations may cause significant error
 Vibrational temperatures:     45.46    84.62    99.83   146.92   178.65
          (Kelvin)            231.47   283.86   357.04   428.92   454.02
                              509.69   543.24   580.49   686.29   705.48
                              766.04   802.84   812.97   847.82   854.70
                              877.36  1014.64  1053.49  1092.83  1129.27
                             1145.24  1241.99  1243.76  1312.03  1349.62
                             1373.85  1420.82  1446.05  1488.05  1511.44
                             1540.74  1583.68  1679.86  1736.11  1763.89
                             1815.40  1858.78  1899.00  1963.82  1968.79
                             1992.13  2063.75  2152.65  2212.65  2258.10
                             2312.57  2333.55  2585.33  2626.91  4559.80
                             4572.39  4583.92  4627.04  4630.12  4669.79
                             4687.24  4702.95  5218.84  5326.91  5375.67

 Zero-point correction=                           0.189096 (Hartree/Particle)
 Thermal correction to Energy=                    0.201912
 Thermal correction to Enthalpy=                  0.202856
 Thermal correction to Gibbs Free Energy=         0.149003
 Sum of electronic and zero-point Energies=           -666.918523
 Sum of electronic and thermal Energies=              -666.905707
 Sum of electronic and thermal Enthalpies=            -666.904763
 Sum of electronic and thermal Free Energies=         -666.958616

                     E (Thermal)             CV                S
                      KCal/Mol        Cal/Mol-Kelvin    Cal/Mol-Kelvin
 Total                  126.702             48.210            113.344
 Electronic               0.000              0.000              0.000
 Translational            0.889              2.981             41.553
 Rotational               0.889              2.981             31.467
 Vibrational            124.924             42.249             40.325
 Vibration     1          0.594              1.983              5.727
 Vibration     2          0.596              1.974              4.497
 Vibration     3          0.598              1.969              4.171
 Vibration     4          0.604              1.947              3.414
 Vibration     5          0.610              1.929              3.034
 Vibration     6          0.622              1.890              2.539
 Vibration     7          0.637              1.844              2.158
 Vibration     8          0.662              1.766              1.744
 Vibration     9          0.691              1.677              1.427
 Vibration    10          0.703              1.644              1.333
 Vibration    11          0.730              1.567              1.147
 Vibration    12          0.748              1.518              1.049
 Vibration    13          0.769              1.463              0.950
 Vibration    14          0.834              1.301              0.718
 Vibration    15          0.846              1.271              0.683
 Vibration    16          0.887              1.178              0.582
 Vibration    17          0.914              1.122              0.528
 Vibration    18          0.921              1.107              0.514
 Vibration    19          0.947              1.055              0.468
 Vibration    20          0.952              1.044              0.460
 Vibration    21          0.969              1.011              0.433

 Optimization completed.
    -- Stationary point found.
 Normal termination of Gaussian 09 at Mon Mar 20 13:30:08 2017.
