 Gaussian 09, Revision D.01,
 Gaussian 09:  EM64L-G09RevD.01 24-Apr-2013

 ----------------------------------------------------------------------
 #p b3lyp empiricaldispersion=gd3bj midix scrf=(pcm,solvent=1,4-dioxane
 ) opt=modredundant freq=noraman
 ----------------------------------------------------------------------

 -------------------
 Title Card Required
 -------------------
 Symbolic Z-matrix:
 Charge =  0 Multiplicity = 1

 SCF Done:  E(RB3LYP) =  -663.287647685     A.U. after   14 cycles
 SCF Done:  E(RB3LYP) =  -663.286665954     A.U. after   14 cycles
 SCF Done:  E(RB3LYP) =  -663.290685805     A.U. after   10 cycles
 SCF Done:  E(RB3LYP) =  -663.293802370     A.U. after   12 cycles
 SCF Done:  E(RB3LYP) =  -663.294771578     A.U. after   12 cycles
 SCF Done:  E(RB3LYP) =  -663.294974867     A.U. after   12 cycles
 SCF Done:  E(RB3LYP) =  -663.295761098     A.U. after   12 cycles
 SCF Done:  E(RB3LYP) =  -663.296145467     A.U. after   11 cycles
 SCF Done:  E(RB3LYP) =  -663.296326796     A.U. after   11 cycles
 SCF Done:  E(RB3LYP) =  -663.296354814     A.U. after   10 cycles
 SCF Done:  E(RB3LYP) =  -663.296373623     A.U. after   10 cycles
 SCF Done:  E(RB3LYP) =  -663.296387179     A.U. after    9 cycles
 SCF Done:  E(RB3LYP) =  -663.296395267     A.U. after    9 cycles
 SCF Done:  E(RB3LYP) =  -663.296397609     A.U. after    9 cycles
 SCF Done:  E(RB3LYP) =  -663.296398662     A.U. after    9 cycles
 SCF Done:  E(RB3LYP) =  -663.296399207     A.U. after    9 cycles
 SCF Done:  E(RB3LYP) =  -663.296399450     A.U. after    8 cycles
 Optimization completed.
    -- Stationary point found.
 Normal termination of Gaussian 09 at Mon Mar 20 12:00:49 2017.

 -----------------------------------------------------------------
 #P Geom=AllCheck Guess=TCheck SCRF=Check GenChk RB3LYP/MIDIx Freq
 -----------------------------------------------------------------

 Structure from the checkpoint file:  "/scratch/ekwan_da_meta_exo-b3lyp_d3bj-midix-freeze/Gau-16191.chk"
 -------------------
 Title Card Required
 -------------------
 Charge =  0 Multiplicity = 1

                         Standard orientation:
 ---------------------------------------------------------------------
 Center     Atomic      Atomic             Coordinates (Angstroms)
 Number     Number       Type             X           Y           Z
 ---------------------------------------------------------------------
      1          6           0       -0.612199    2.336412   -0.153971
      2          1           0       -0.575912    3.286127    0.380371
      3          6           0       -1.828331    1.835161   -0.513237
      4          1           0       -2.746507    2.369345   -0.278421
      5          1           0       -1.932645    0.982237   -1.176476
      6          6           0        0.610460    1.636564   -0.284608
      7          1           0        1.509233    2.063001    0.146200
      8          6           0        0.660552    0.320007   -0.708789
      9          1           0       -0.107645   -0.084186   -1.362416
     10          7           0        1.874170   -0.401076   -0.826777
     11          1           0        1.866527   -1.243685   -1.405626
     12          6           0        2.908359   -0.310141    0.080673
     13          8           0        3.005611    0.505029    0.990227
     14          8           0        3.841743   -1.280204   -0.190780
     15          6           0       -1.617185   -0.261572    1.042609
     16          1           0       -1.942645    0.384237    1.849116
     17          6           0       -0.303268   -0.641889    0.889901
     18          1           0        0.439633   -0.341890    1.624985
     19          1           0       -0.088604   -1.565674    0.358662
     20          6           0       -2.691269   -0.855179    0.248240
     21          8           0       -3.887460   -0.868354    0.495332
     22          8           0       -2.190938   -1.416823   -0.929019
     23          1           0        4.547887   -1.129168    0.492395
     24          1           0       -3.002878   -1.786169   -1.372356
 ---------------------------------------------------------------------

 SCF Done:  E(RB3LYP) =  -663.296399450     A.U. after    1 cycles

 The electronic state is 1-A.
 Alpha  occ. eigenvalues --  -19.07374 -19.06126 -19.01138 -19.00043 -14.29079
 Alpha  occ. eigenvalues --  -10.28214 -10.23936 -10.18252 -10.13262 -10.12397
 Alpha  occ. eigenvalues --  -10.12362 -10.12321 -10.12191  -1.10750  -1.08119
 Alpha  occ. eigenvalues --   -1.01600  -0.99630  -0.95118  -0.82432  -0.78521
 Alpha  occ. eigenvalues --   -0.73956  -0.66795  -0.64915  -0.60389  -0.57419
 Alpha  occ. eigenvalues --   -0.56481  -0.53198  -0.50313  -0.48004  -0.47649
 Alpha  occ. eigenvalues --   -0.47456  -0.45891  -0.45009  -0.44098  -0.43685
 Alpha  occ. eigenvalues --   -0.41462  -0.40582  -0.38845  -0.38229  -0.37265
 Alpha  occ. eigenvalues --   -0.36977  -0.35558  -0.31334  -0.29903  -0.29339
 Alpha  occ. eigenvalues --   -0.27528  -0.25603  -0.24643  -0.20792
 Alpha virt. eigenvalues --   -0.04861  -0.00044   0.04846   0.05994   0.07187
 Alpha virt. eigenvalues --    0.08499   0.09144   0.10896   0.12988   0.13801
 Alpha virt. eigenvalues --    0.14058   0.15646   0.18073   0.18940   0.19416

 Mulliken charges:
               1
     1  C   -0.188849
     2  H    0.165456
     3  C   -0.312841
     4  H    0.169937
     5  H    0.172932
     6  C   -0.163966
     7  H    0.182444
     8  C    0.078322
     9  H    0.203886
    10  N   -0.756180
    11  H    0.326344
    12  C    1.051444
    13  O   -0.598475
    14  O   -0.629373
    15  C   -0.228947
    16  H    0.179129
    17  C   -0.319736
    18  H    0.186164
    19  H    0.181292
    20  C    0.748768
    21  O   -0.589204
    22  O   -0.614779
    23  H    0.389902
    24  H    0.366331
 Sum of Mulliken charges =   0.00000

 Dipole moment (field-independent basis, Debye):
    X=              2.7842    Y=             -1.6646    Z=             -2.0542  Tot=              3.8396
 Quadrupole moment (field-independent basis, Debye-Ang):
   XX=            -78.8691   YY=            -71.8759   ZZ=            -74.3459
   XY=             -6.7220   XZ=              5.2492   YZ=              4.1351

  Exact polarizability: 169.243  -4.757 120.904   2.097   3.126  80.588
 Approx polarizability: 241.944  -3.121 184.348  -6.213   4.786 122.366

 ******    1 imaginary frequencies (negative Signs) ******

                      1                      2                      3
                      A                      A                      A
 Frequencies --   -279.3388                43.7849                51.2165
 Red. masses --      7.2592                 5.9782                 7.1540
 Frc consts  --      0.3337                 0.0068                 0.0111
 IR Inten    --     15.2724                 2.6292                 0.7761

                      4                      5                      6
                      A                      A                      A
 Frequencies --     68.0910                92.8658               124.0524
 Red. masses --      8.4437                 9.8122                 5.4433
 Frc consts  --      0.0231                 0.0499                 0.0494
 IR Inten    --      2.5933                 0.5639                 0.3991

                      7                      8                      9
                      A                      A                      A
 Frequencies --    152.9037               222.5779               240.2356
 Red. masses --      4.6912                 4.8824                 4.1692
 Frc consts  --      0.0646                 0.1425                 0.1418
 IR Inten    --      0.8838                 1.3891                 7.6778

                     10                     11                     12
                      A                      A                      A
 Frequencies --    287.3879               304.2676               346.1796
 Red. masses --      3.6525                 3.4767                 5.1046
 Frc consts  --      0.1777                 0.1896                 0.3604
 IR Inten    --      0.5400                 0.3862                 4.6783

                     13                     14                     15
                      A                      A                      A
 Frequencies --    363.1249               400.0490               452.6962
 Red. masses --      5.4131                 3.1028                 2.2247
 Frc consts  --      0.4205                 0.2926                 0.2686
 IR Inten    --      6.1206                45.3155                25.4113

                     16                     17                     18
                      A                      A                      A
 Frequencies --    468.9086               525.1924               542.8615
 Red. masses --      1.1887                 3.9035                 1.2209
 Frc consts  --      0.1540                 0.6344                 0.2120
 IR Inten    --    169.7956                72.3493                 8.6015

                     19                     20                     21
                      A                      A                      A
 Frequencies --    547.0210               584.3006               595.0757
 Red. masses --      3.7638                 2.3828                 1.2163
 Frc consts  --      0.6636                 0.4793                 0.2538
 IR Inten    --     28.8032                30.5081                50.3838

                     22                     23                     24
                      A                      A                      A
 Frequencies --    618.3764               688.4264               720.7722
 Red. masses --      2.7416                 1.3143                 2.8945
 Frc consts  --      0.6177                 0.3670                 0.8860
 IR Inten    --     17.5069                10.8640                19.4914

                     25                     26                     27
                      A                      A                      A
 Frequencies --    731.0395               783.3505               835.0500
 Red. masses --      8.6729                 4.6109                 3.2819
 Frc consts  --      2.7308                 1.6670                 1.3484
 IR Inten    --     47.2350                 5.7664                 9.8287

                     28                     29                     30
                      A                      A                      A
 Frequencies --    845.9780               900.9172               927.1771
 Red. masses --      1.8760                 1.4251                 3.2974
 Frc consts  --      0.7911                 0.6815                 1.6701
 IR Inten    --     23.7846                26.0660                 7.0909

                     31                     32                     33
                      A                      A                      A
 Frequencies --    965.4073               990.0099              1015.2871
 Red. masses --      1.3529                 1.4312                 1.2784
 Frc consts  --      0.7429                 0.8265                 0.7764
 IR Inten    --     36.6387                72.8937                62.5689

                     34                     35                     36
                      A                      A                      A
 Frequencies --   1057.2100              1066.0699              1076.5566
 Red. masses --      1.1464                 1.6844                 1.4041
 Frc consts  --      0.7550                 1.1279                 0.9588
 IR Inten    --     10.3670                48.8675                68.5832

                     37                     38                     39
                      A                      A                      A
 Frequencies --   1097.3122              1115.5109              1167.6314
 Red. masses --      1.8372                 1.3123                 2.2140
 Frc consts  --      1.3033                 0.9621                 1.7784
 IR Inten    --     11.5825                21.8823               561.0002

                     40                     41                     42
                      A                      A                      A
 Frequencies --   1194.7097              1225.2024              1298.3948
 Red. masses --      1.6727                 1.7894                 1.5276
 Frc consts  --      1.4067                 1.5826                 1.5173
 IR Inten    --    148.7125               115.3846                 8.3635

                     43                     44                     45
                      A                      A                      A
 Frequencies --   1326.0178              1346.3062              1357.9935
 Red. masses --      1.5369                 1.8448                 1.6528
 Frc consts  --      1.5922                 1.9701                 1.7958
 IR Inten    --     31.9199                40.9106                14.9923

                     46                     47                     48
                      A                      A                      A
 Frequencies --   1373.9722              1399.6870              1461.1328
 Red. masses --      1.6012                 1.5412                 1.7150
 Frc consts  --      1.7809                 1.7790                 2.1572
 IR Inten    --     18.7625                43.0836                26.3461

                     49                     50                     51
                      A                      A                      A
 Frequencies --   1513.8592              1543.5258              1568.6963
 Red. masses --      1.4361                 2.1324                 1.6804
 Frc consts  --      1.9391                 2.9932                 2.4363
 IR Inten    --     23.5722               517.2974                61.9712

                     52                     53                     54
                      A                      A                      A
 Frequencies --   1625.3484              1646.1555              1804.3611
 Red. masses --      2.4236                 2.5621                 8.5500
 Frc consts  --      3.7723                 4.0907                16.4008
 IR Inten    --      2.2503                20.5839               483.7292

                     55                     56                     57
                      A                      A                      A
 Frequencies --   1804.8202              3152.3145              3155.0913
 Red. masses --      8.0754                 1.0571                 1.0853
 Frc consts  --     15.4982                 6.1889                 6.3655
 IR Inten    --    267.6955                 3.5329                22.8224

                     58                     59                     60
                      A                      A                      A
 Frequencies --   3170.5140              3184.5432              3228.3183
 Red. masses --      1.0627                 1.0907                 1.1029
 Frc consts  --      6.2941                 6.5172                 6.7723
 IR Inten    --      6.1214                 3.3428                 0.1008

                     61                     62                     63
                      A                      A                      A
 Frequencies --   3236.7623              3246.0495              3253.2039
 Red. masses --      1.0886                 1.1020                 1.1141
 Frc consts  --      6.7194                 6.8414                 6.9469
 IR Inten    --      0.3770                 2.6243                 7.7459

                     64                     65                     66
                      A                      A                      A
 Frequencies --   3479.3185              3503.9785              3536.9965
 Red. masses --      1.0772                 1.0639                 1.0642
 Frc consts  --      7.6828                 7.6965                 7.8443
 IR Inten    --     69.2271                69.6011               121.5345

 - Thermochemistry -
 -------------------
 Temperature   298.150 Kelvin.  Pressure   1.00000 Atm.
 Atom     1 has atomic number  6 and mass  12.00000

 Molecular mass:   185.06881 amu.
 Principal axes and moments of inertia in atomic units:
                           1         2         3
     Eigenvalues --  1261.937054164.696944775.36173
           X            0.99992  -0.01234   0.00389
           Y            0.01227   0.99977   0.01765
           Z           -0.00411  -0.01760   0.99984
 This molecule is an asymmetric top.
 Rotational symmetry number  1.
 Warning -- assumption of classical behavior for rotation
           may cause significant error
 Rotational temperatures (Kelvin)      0.06864     0.02080     0.01814
 Rotational constants (GHZ):           1.43014     0.43334     0.37793
    1 imaginary frequencies ignored.
 Zero-point vibrational energy     494369.6 (Joules/Mol)
                                  118.15718 (Kcal/Mol)
 Warning -- explicit consideration of  21 degrees of freedom as
           vibrations may cause significant error
 Vibrational temperatures:     63.00    73.69    97.97   133.61   178.48
          (Kelvin)            219.99   320.24   345.65   413.49   437.77
                              498.07   522.46   575.58   651.33   674.65
                              755.63   781.06   787.04   840.68   856.18
                              889.70   990.49  1037.03  1051.80  1127.07
                             1201.45  1217.17  1296.22  1334.00  1389.00
                             1424.40  1460.77  1521.09  1533.83  1548.92
                             1578.79  1604.97  1679.96  1718.92  1762.79
                             1868.10  1907.84  1937.03  1953.85  1976.84
                             2013.83  2102.24  2178.10  2220.79  2257.00
                             2338.51  2368.45  2596.07  2596.73  4535.47
                             4539.47  4561.66  4581.84  4644.82  4656.97
                             4670.34  4680.63  5005.96  5041.44  5088.94

 Zero-point correction=                           0.188295 (Hartree/Particle)
 Thermal correction to Energy=                    0.201190
 Thermal correction to Enthalpy=                  0.202135
 Thermal correction to Gibbs Free Energy=         0.148155
 Sum of electronic and zero-point Energies=           -663.108104
 Sum of electronic and thermal Energies=              -663.095209
 Sum of electronic and thermal Enthalpies=            -663.094265
 Sum of electronic and thermal Free Energies=         -663.148245

                     E (Thermal)             CV                S
                      KCal/Mol        Cal/Mol-Kelvin    Cal/Mol-Kelvin
 Total                  126.249             48.164            113.610
 Electronic               0.000              0.000              0.000
 Translational            0.889              2.981             41.553
 Rotational               0.889              2.981             31.596
 Vibrational            124.471             42.203             40.461
 Vibration     1          0.595              1.980              5.080
 Vibration     2          0.595              1.977              4.770
 Vibration     3          0.598              1.969              4.208
 Vibration     4          0.602              1.954              3.599
 Vibration     5          0.610              1.929              3.036
 Vibration     6          0.619              1.899              2.636
 Vibration     7          0.648              1.807              1.938
 Vibration     8          0.657              1.779              1.801
 Vibration     9          0.685              1.697              1.489
 Vibration    10          0.695              1.666              1.393
 Vibration    11          0.724              1.583              1.184
 Vibration    12          0.737              1.548              1.109
 Vibration    13          0.766              1.470              0.962
 Vibration    14          0.811              1.355              0.788
 Vibration    15          0.826              1.319              0.741
 Vibration    16          0.880              1.194              0.598
 Vibration    17          0.898              1.155              0.559
 Vibration    18          0.902              1.146              0.550
 Vibration    19          0.941              1.065              0.477
 Vibration    20          0.953              1.042              0.458
 Vibration    21          0.978              0.993              0.419

 Normal termination of Gaussian 09 at Mon Mar 20 12:04:51 2017.
