 Gaussian 09, Revision D.01,
 Gaussian 09:  EM64L-G09RevD.01 24-Apr-2013

 ----------------------------------------------------------------------
 #p b3lyp empiricaldispersion=gd3bj cc-pVQZ scrf=(pcm,solvent=1,4-dioxa
 ne)
 ----------------------------------------------------------------------

 -------------------
 Title Card Required
 -------------------
 Symbolic Z-matrix:
 Charge =  0 Multiplicity = 1

                         Standard orientation:
 ---------------------------------------------------------------------
 Center     Atomic      Atomic             Coordinates (Angstroms)
 Number     Number       Type             X           Y           Z
 ---------------------------------------------------------------------
      1          6           0        1.834938   -1.351239    1.382702
      2          1           0        2.345560   -0.851966    2.210360
      3          6           0        2.599901   -1.914291    0.369934
      4          1           0        3.688705   -1.927953    0.447396
      5          1           0        2.175623   -2.659233   -0.302961
      6          6           0        0.455065   -1.155932    1.263541
      7          1           0       -0.058150   -0.516464    1.979626
      8          6           0       -0.225112   -1.532381    0.098927
      9          1           0        0.105170   -2.421407   -0.436498
     10          7           0       -1.598774   -1.299071   -0.103228
     11          1           0       -2.067326   -1.855064   -0.808494
     12          6           0       -2.271181   -0.163475    0.281606
     13          8           0       -1.835742    0.719771    0.995870
     14          8           0       -3.515665   -0.181424   -0.253431
     15          6           0        2.176029   -0.458946   -1.312497
     16          1           0        2.706694   -1.093538   -2.022396
     17          6           0        0.785509   -0.322311   -1.386962
     18          1           0        0.259019   -0.825293   -2.200311
     19          1           0        0.325705    0.586549   -1.001595
     20          6           0        3.033054    0.576350   -0.707078
     21          8           0        4.237000    0.676532   -0.865157
     22          8           0        2.321474    1.423158    0.079938
     23          6           0        3.092900    2.413141    0.769404
     24          1           0        2.370447    3.003173    1.345981
     25          1           0        3.823473    1.937511    1.441624
     26          1           0        3.635639    3.053345    0.058090
     27          6           0       -4.347176    0.953075    0.082273
     28          1           0       -4.420962    1.027936    1.178334
     29          1           0       -3.859531    1.870663   -0.282788
     30          6           0       -5.695687    0.728290   -0.566901
     31          1           0       -6.363987    1.572934   -0.338555
     32          1           0       -5.597612    0.649743   -1.660811
     33          1           0       -6.163020   -0.195428   -0.191867
 ---------------------------------------------------------------------

 SCF Done:  E(RB3LYP) =  -785.413878337     A.U. after   13 cycles

 The electronic state is 1-A.
 Alpha  occ. eigenvalues --  -19.17438 -19.16077 -19.11054 -19.09866 -14.36488
 Alpha  occ. eigenvalues --  -10.33245 -10.29247 -10.23835 -10.23689 -10.22003
 Alpha  occ. eigenvalues --  -10.18989 -10.18728 -10.18436 -10.17745 -10.17654
 Alpha  occ. eigenvalues --  -10.17649  -1.11886  -1.09602  -1.02751  -1.00686
 Alpha  occ. eigenvalues --   -0.95530  -0.82452  -0.78535  -0.77922  -0.73156
 Alpha  occ. eigenvalues --   -0.71214  -0.67263  -0.63045  -0.62496  -0.60008
 Alpha  occ. eigenvalues --   -0.57252  -0.55849  -0.53936  -0.51263  -0.50676
 Alpha  occ. eigenvalues --   -0.50019  -0.47994  -0.47521  -0.47253  -0.45433
 Alpha  occ. eigenvalues --   -0.45128  -0.44346  -0.42897  -0.41981  -0.41801
 Alpha  occ. eigenvalues --   -0.40342  -0.40059  -0.38755  -0.38157  -0.37761
 Alpha  occ. eigenvalues --   -0.36781  -0.36311  -0.36037  -0.35552  -0.31570
 Alpha  occ. eigenvalues --   -0.31263  -0.30206  -0.29609  -0.27693  -0.24414
 Alpha  occ. eigenvalues --   -0.22596
 Alpha virt. eigenvalues --   -0.04920  -0.02295   0.00780   0.02138   0.02679
 Alpha virt. eigenvalues --    0.02902   0.04341   0.04930   0.05490   0.06280
 Alpha virt. eigenvalues --    0.06518   0.07286   0.07868   0.08183   0.08828

 Mulliken charges:
               1
     1  C   -0.144893
     2  H    0.120139
     3  C   -0.183652
     4  H    0.130495
     5  H    0.094894
     6  C   -0.154907
     7  H    0.127309
     8  C    0.132613
     9  H    0.136714
    10  N   -0.347456
    11  H    0.179647
    12  C    0.593864
    13  O   -0.473660
    14  O   -0.374214
    15  C   -0.182257
    16  H    0.161579
    17  C   -0.238487
    18  H    0.122260
    19  H    0.119229
    20  C    0.505314
    21  O   -0.472901
    22  O   -0.339572
    23  C   -0.070286
    24  H    0.109919
    25  H    0.080865
    26  H    0.096911
    27  C    0.096680
    28  H    0.075961
    29  H    0.077314
    30  C   -0.259507
    31  H    0.092684
    32  H    0.092938
    33  H    0.094464
 Sum of Mulliken charges =   0.00000

 Dipole moment (field-independent basis, Debye):
    X=             -4.8551    Y=             -1.6755    Z=             -0.8253  Tot=              5.2019
 Quadrupole moment (field-independent basis, Debye-Ang):
   XX=           -100.7841   YY=            -89.0074   ZZ=            -96.1445
   XY=             -1.9810   XZ=              9.7995   YZ=              6.2517

 Normal termination of Gaussian 09 at Mon Mar 20 23:42:32 2017.
