 Gaussian 09, Revision D.01,
 Gaussian 09:  EM64L-G09RevD.01 24-Apr-2013

 ----------------------------------------------------------------------
 #p b3lyp empiricaldispersion=gd3bj cc-pVQZ scrf=(pcm,solvent=1,4-dioxa
 ne)
 ----------------------------------------------------------------------

 -------------------
 Title Card Required
 -------------------
 Symbolic Z-matrix:
 Charge =  0 Multiplicity = 1

                         Standard orientation:
 ---------------------------------------------------------------------
 Center     Atomic      Atomic             Coordinates (Angstroms)
 Number     Number       Type             X           Y           Z
 ---------------------------------------------------------------------
      1          6           0       -1.307672    2.552210   -0.447510
      2          1           0       -1.366595    3.572885   -0.058341
      3          6           0       -2.473153    1.807723   -0.552329
      4          1           0       -3.438373    2.255817   -0.308163
      5          1           0       -2.518864    0.938090   -1.207701
      6          6           0       -0.035594    1.984597   -0.584280
      7          1           0        0.843955    2.570239   -0.321267
      8          6           0        0.119306    0.606770   -0.785821
      9          1           0       -0.631451    0.063035   -1.358435
     10          7           0        1.377664   -0.019550   -0.870947
     11          1           0        1.416069   -0.928545   -1.316563
     12          6           0        2.468658    0.294781   -0.096189
     13          8           0        2.566904    1.252903    0.647628
     14          8           0        3.436879   -0.630848   -0.295668
     15          6           0       -2.127773    0.263491    1.107117
     16          1           0       -2.424528    0.989414    1.861744
     17          6           0       -0.795560   -0.153013    1.001913
     18          1           0       -0.051343    0.279178    1.671624
     19          1           0       -0.598838   -1.168932    0.660179
     20          6           0       -3.236073   -0.579952    0.633064
     21          8           0       -4.389969   -0.519130    1.012630
     22          8           0       -2.831481   -1.447451   -0.342855
     23          6           0       -3.860082   -2.302472   -0.860394
     24          1           0       -4.679280   -1.709382   -1.293382
     25          1           0       -3.378157   -2.913835   -1.633083
     26          1           0       -4.271890   -2.942947   -0.066064
     27          6           0        4.659544   -0.414717    0.445875
     28          1           0        4.425767   -0.408015    1.522028
     29          1           0        5.061977    0.576684    0.185689
     30          6           0        5.611092   -1.532011    0.076474
     31          1           0        6.559764   -1.408362    0.621381
     32          1           0        5.185982   -2.513304    0.338698
     33          1           0        5.827324   -1.523406   -1.003113
 ---------------------------------------------------------------------

 SCF Done:  E(RB3LYP) =  -785.414012517     A.U. after   13 cycles

 The electronic state is 1-A.
 Alpha  occ. eigenvalues --  -19.17492 -19.16794 -19.11128 -19.10600 -14.36497
 Alpha  occ. eigenvalues --  -10.33315 -10.29783 -10.23843 -10.23733 -10.22653
 Alpha  occ. eigenvalues --  -10.18954 -10.18727 -10.18649 -10.17888 -10.17737
 Alpha  occ. eigenvalues --  -10.17678  -1.11948  -1.10099  -1.02814  -1.01352
 Alpha  occ. eigenvalues --   -0.95558  -0.82499  -0.78733  -0.78081  -0.73200
 Alpha  occ. eigenvalues --   -0.71546  -0.67325  -0.63179  -0.62740  -0.60050
 Alpha  occ. eigenvalues --   -0.57312  -0.56184  -0.54104  -0.51501  -0.50669
 Alpha  occ. eigenvalues --   -0.50330  -0.48548  -0.47857  -0.47442  -0.45156
 Alpha  occ. eigenvalues --   -0.44967  -0.44739  -0.43290  -0.42304  -0.42058
 Alpha  occ. eigenvalues --   -0.40256  -0.40076  -0.38713  -0.38556  -0.38052
 Alpha  occ. eigenvalues --   -0.36821  -0.36623  -0.36392  -0.36055  -0.31640
 Alpha  occ. eigenvalues --   -0.31371  -0.30941  -0.29700  -0.28192  -0.24500
 Alpha  occ. eigenvalues --   -0.22679
 Alpha virt. eigenvalues --   -0.05237  -0.02633   0.00851   0.02191   0.02795
 Alpha virt. eigenvalues --    0.03391   0.03736   0.04878   0.05402   0.05930
 Alpha virt. eigenvalues --    0.06518   0.07454   0.07734   0.07736   0.08645

 Mulliken charges:
               1
     1  C   -0.148421
     2  H    0.138342
     3  C   -0.208546
     4  H    0.137218
     5  H    0.101396
     6  C   -0.179383
     7  H    0.137737
     8  C    0.140217
     9  H    0.136668
    10  N   -0.349438
    11  H    0.182597
    12  C    0.592720
    13  O   -0.475913
    14  O   -0.373120
    15  C   -0.180913
    16  H    0.152550
    17  C   -0.220850
    18  H    0.127580
    19  H    0.110020
    20  C    0.512448
    21  O   -0.460623
    22  O   -0.365778
    23  C   -0.060523
    24  H    0.086502
    25  H    0.101356
    26  H    0.095190
    27  C    0.096463
    28  H    0.077405
    29  H    0.075814
    30  C   -0.259294
    31  H    0.092748
    32  H    0.093186
    33  H    0.094644
 Sum of Mulliken charges =   0.00000

 Dipole moment (field-independent basis, Debye):
    X=              3.4740    Y=             -2.6593    Z=             -2.5186  Tot=              5.0482
 Quadrupole moment (field-independent basis, Debye-Ang):
   XX=           -100.1473   YY=            -92.4948   ZZ=            -97.7128
   XY=             -4.4507   XZ=              8.5079   YZ=              3.5911

 Normal termination of Gaussian 09 at Tue Mar 21 02:53:24 2017.
