 Gaussian 09, Revision D.01,
 Gaussian 09:  EM64L-G09RevD.01 24-Apr-2013

 ----------------------------------------------------------------------
 #p b3lyp empiricaldispersion=gd3bj midix scrf=(pcm,solvent=1,4-dioxane
 ) opt=(ts,calcfc,maxstep=5,noeigentest) freq=noraman
 ----------------------------------------------------------------------

 -------------------
 Title Card Required
 -------------------
 Symbolic Z-matrix:
 Charge =  0 Multiplicity = 1

 SCF Done:  E(RB3LYP) =  -663.297288198     A.U. after   14 cycles
 SCF Done:  E(RB3LYP) =  -663.296577938     A.U. after   11 cycles
 SCF Done:  E(RB3LYP) =  -663.295900694     A.U. after   11 cycles
 SCF Done:  E(RB3LYP) =  -663.295492416     A.U. after   12 cycles
 SCF Done:  E(RB3LYP) =  -663.295678505     A.U. after   12 cycles
 SCF Done:  E(RB3LYP) =  -663.296060324     A.U. after   11 cycles
 SCF Done:  E(RB3LYP) =  -663.296225453     A.U. after   10 cycles
 SCF Done:  E(RB3LYP) =  -663.296164040     A.U. after   11 cycles
 SCF Done:  E(RB3LYP) =  -663.296222821     A.U. after   11 cycles
 SCF Done:  E(RB3LYP) =  -663.296342050     A.U. after   11 cycles
 SCF Done:  E(RB3LYP) =  -663.296252593     A.U. after   11 cycles
 SCF Done:  E(RB3LYP) =  -663.296255668     A.U. after   10 cycles
 SCF Done:  E(RB3LYP) =  -663.296052833     A.U. after   11 cycles
 SCF Done:  E(RB3LYP) =  -663.296003912     A.U. after   11 cycles
 SCF Done:  E(RB3LYP) =  -663.296243311     A.U. after   11 cycles
 SCF Done:  E(RB3LYP) =  -663.296226008     A.U. after   11 cycles
 SCF Done:  E(RB3LYP) =  -663.296255892     A.U. after   10 cycles
 SCF Done:  E(RB3LYP) =  -663.296257923     A.U. after    9 cycles
 Optimization completed.
    -- Stationary point found.
 Normal termination of Gaussian 09 at Mon Mar 20 12:29:09 2017.

 -----------------------------------------------------------------
 #P Geom=AllCheck Guess=TCheck SCRF=Check GenChk RB3LYP/MIDIx Freq
 -----------------------------------------------------------------

 Structure from the checkpoint file:  "/scratch/ekwan_da_meta_endo-b3lyp_d3bj-midix-ts/Gau-16418.chk"
 -------------------
 Title Card Required
 -------------------
 Charge =  0 Multiplicity = 1

                         Standard orientation:
 ---------------------------------------------------------------------
 Center     Atomic      Atomic             Coordinates (Angstroms)
 Number     Number       Type             X           Y           Z
 ---------------------------------------------------------------------
      1          6           0        1.084691    1.435646   -1.131248
      2          1           0        1.555862    1.207958   -2.085546
      3          6           0        1.890502    1.754891   -0.048676
      4          1           0        2.967714    1.843289   -0.174962
      5          1           0        1.487873    2.267450    0.821935
      6          6           0       -0.268361    1.130825   -0.989404
      7          1           0       -0.798539    0.661159   -1.810007
      8          6           0       -0.886043    1.150373    0.263927
      9          1           0       -0.575362    1.882179    1.004515
     10          7           0       -2.229644    0.752891    0.463986
     11          1           0       -2.690344    1.065595    1.321138
     12          6           0       -2.784813   -0.358733   -0.134450
     13          8           0       -2.290797   -1.016116   -1.041777
     14          8           0       -4.005613   -0.623667    0.437966
     15          6           0        1.654542   -0.122194    1.161899
     16          1           0        2.221422    0.297429    1.987560
     17          6           0        0.286247   -0.367690    1.284182
     18          1           0       -0.204239   -0.161581    2.234266
     19          1           0       -0.169428   -1.137082    0.667911
     20          6           0        2.485420   -0.865989    0.198066
     21          8           0        3.706337   -0.945121    0.200486
     22          8           0        1.713887   -1.467458   -0.773095
     23          1           0       -4.335008   -1.417396   -0.061501
     24          1           0        2.383926   -1.903130   -1.367628
 ---------------------------------------------------------------------

 SCF Done:  E(RB3LYP) =  -663.296257923     A.U. after    1 cycles

 The electronic state is 1-A.
 Alpha  occ. eigenvalues --  -19.07173 -19.05336 -19.00869 -18.99285 -14.28842
 Alpha  occ. eigenvalues --  -10.27926 -10.23484 -10.18310 -10.13173 -10.12997
 Alpha  occ. eigenvalues --  -10.12517 -10.11855 -10.11790  -1.10511  -1.07751
 Alpha  occ. eigenvalues --   -1.01364  -0.99033  -0.94834  -0.82532  -0.77768
 Alpha  occ. eigenvalues --   -0.73571  -0.66615  -0.64246  -0.60272  -0.56972
 Alpha  occ. eigenvalues --   -0.56585  -0.52764  -0.50085  -0.47672  -0.47088
 Alpha  occ. eigenvalues --   -0.46775  -0.45480  -0.44586  -0.44021  -0.42549
 Alpha  occ. eigenvalues --   -0.42377  -0.40399  -0.38125  -0.37467  -0.37147
 Alpha  occ. eigenvalues --   -0.36508  -0.35355  -0.31158  -0.29508  -0.29033
 Alpha  occ. eigenvalues --   -0.27272  -0.25113  -0.23272  -0.21234
 Alpha virt. eigenvalues --   -0.02641  -0.00329   0.05001   0.05903   0.07575
 Alpha virt. eigenvalues --    0.07920   0.08665   0.11368   0.11766   0.13106
 Alpha virt. eigenvalues --    0.14224   0.15952   0.18047   0.18399   0.20912

 Mulliken charges:
               1
     1  C   -0.183825
     2  H    0.164521
     3  C   -0.319521
     4  H    0.179773
     5  H    0.175323
     6  C   -0.161304
     7  H    0.180465
     8  C    0.100820
     9  H    0.188994
    10  N   -0.758002
    11  H    0.323143
    12  C    1.050340
    13  O   -0.596950
    14  O   -0.630190
    15  C   -0.279959
    16  H    0.178715
    17  C   -0.306207
    18  H    0.161739
    19  H    0.192514
    20  C    0.795548
    21  O   -0.602827
    22  O   -0.607504
    23  H    0.389012
    24  H    0.365381
 Sum of Mulliken charges =   0.00000

 Dipole moment (field-independent basis, Debye):
    X=             -3.6367    Y=              1.1365    Z=              1.6286  Tot=              4.1436
 Quadrupole moment (field-independent basis, Debye-Ang):
   XX=            -77.4573   YY=            -72.8384   ZZ=            -70.5529
   XY=              3.7893   XZ=             -6.8155   YZ=              5.1631

  Exact polarizability: 160.185   8.691  95.142  -2.253   1.063 101.610
 Approx polarizability: 229.170  10.187 136.685  -0.748  -3.344 160.731

 ******    1 imaginary frequencies (negative Signs) ******

                      1                      2                      3
                      A                      A                      A
 Frequencies --   -486.9123                44.5310                63.6513
 Red. masses --      8.1386                 8.6740                 7.9465
 Frc consts  --      1.1368                 0.0101                 0.0190
 IR Inten    --     33.8975                 1.1747                 3.0912

                      4                      5                      6
                      A                      A                      A
 Frequencies --     72.6103               104.4679               131.7869
 Red. masses --      6.7903                 7.9433                 5.2330
 Frc consts  --      0.0211                 0.0511                 0.0535
 IR Inten    --      0.4089                 1.2786                 1.2816

                      7                      8                      9
                      A                      A                      A
 Frequencies --    177.2603               217.0155               262.0018
 Red. masses --      5.1977                 5.6535                 3.7265
 Frc consts  --      0.0962                 0.1569                 0.1507
 IR Inten    --      1.8305                 1.5654                 2.0253

                     10                     11                     12
                      A                      A                      A
 Frequencies --    308.9427               333.7262               355.1286
 Red. masses --      4.2109                 3.9602                 4.9777
 Frc consts  --      0.2368                 0.2599                 0.3699
 IR Inten    --      1.1104                 0.4842                 3.0327

                     13                     14                     15
                      A                      A                      A
 Frequencies --    376.4048               429.4056               478.5833
 Red. masses --      4.0052                 3.9094                 1.1210
 Frc consts  --      0.3343                 0.4247                 0.1513
 IR Inten    --     11.6641                24.4573               179.2125

                     16                     17                     18
                      A                      A                      A
 Frequencies --    496.0290               534.1118               547.1342
 Red. masses --      2.6705                 3.2568                 1.2123
 Frc consts  --      0.3871                 0.5474                 0.2138
 IR Inten    --     37.2697                30.6088                16.6035

                     19                     20                     21
                      A                      A                      A
 Frequencies --    559.6608               593.5526               605.9409
 Red. masses --      3.6874                 2.4296                 1.3784
 Frc consts  --      0.6805                 0.5043                 0.2982
 IR Inten    --     30.3698                28.7489                53.9559

                     22                     23                     24
                      A                      A                      A
 Frequencies --    625.7603               720.6697               729.4621
 Red. masses --      2.6742                 1.8758                 7.0262
 Frc consts  --      0.6170                 0.5740                 2.2028
 IR Inten    --     15.3475                71.8509                46.7971

                     25                     26                     27
                      A                      A                      A
 Frequencies --    740.4265               790.1885               800.2037
 Red. masses --      1.8700                 3.8971                 1.9088
 Frc consts  --      0.6040                 1.4337                 0.7201
 IR Inten    --      6.9360                 3.1139                 9.0138

                     28                     29                     30
                      A                      A                      A
 Frequencies --    858.5360               889.7119               922.0249
 Red. masses --      2.2636                 1.4180                 2.1560
 Frc consts  --      0.9830                 0.6613                 1.0799
 IR Inten    --      4.4614                23.0408                15.8211

                     31                     32                     33
                      A                      A                      A
 Frequencies --    952.2158               969.5264              1018.0792
 Red. masses --      1.5839                 1.1759                 1.2911
 Frc consts  --      0.8462                 0.6512                 0.7884
 IR Inten    --     28.7009                24.9241                 8.7393

                     34                     35                     36
                      A                      A                      A
 Frequencies --   1029.4442              1060.8719              1074.6123
 Red. masses --      1.3587                 1.3247                 1.5234
 Frc consts  --      0.8484                 0.8784                 1.0365
 IR Inten    --     43.2536                24.0477                 1.4671

                     37                     38                     39
                      A                      A                      A
 Frequencies --   1085.4992              1103.0953              1164.6638
 Red. masses --      1.3391                 2.3108                 2.2476
 Frc consts  --      0.9297                 1.6567                 1.7963
 IR Inten    --     76.5256                 8.4998               556.4059

                     40                     41                     42
                      A                      A                      A
 Frequencies --   1202.2842              1229.5265              1278.4012
 Red. masses --      1.6847                 1.7899                 1.7867
 Frc consts  --      1.4348                 1.5942                 1.7204
 IR Inten    --    140.8008                77.6477                10.0184

                     43                     44                     45
                      A                      A                      A
 Frequencies --   1302.0913              1327.7402              1371.3428
 Red. masses --      1.5479                 1.5144                 1.7078
 Frc consts  --      1.5462                 1.5729                 1.8923
 IR Inten    --     42.6353                23.0180                 5.5229

                     46                     47                     48
                      A                      A                      A
 Frequencies --   1373.5377              1395.1139              1433.6266
 Red. masses --      1.9794                 1.5603                 2.0414
 Frc consts  --      2.2002                 1.7893                 2.4720
 IR Inten    --     44.8631                52.7294                16.7346

                     49                     50                     51
                      A                      A                      A
 Frequencies --   1517.7580              1542.6467              1555.8882
 Red. masses --      1.5219                 1.5643                 1.7505
 Frc consts  --      2.0656                 2.1933                 2.4966
 IR Inten    --    147.5918                99.4278               326.8853

                     52                     53                     54
                      A                      A                      A
 Frequencies --   1599.8672              1611.1138              1799.4529
 Red. masses --      2.0901                 2.5499                 8.6233
 Frc consts  --      3.1519                 3.8996                16.4515
 IR Inten    --      4.6788                13.6549               424.8762

                     55                     56                     57
                      A                      A                      A
 Frequencies --   1807.0793              3146.3225              3153.9458
 Red. masses --      8.0498                 1.0582                 1.0569
 Frc consts  --     15.4878                 6.1717                 6.1941
 IR Inten    --    242.5690                 9.3438                 8.5653

                     58                     59                     60
                      A                      A                      A
 Frequencies --   3175.5373              3189.2181              3201.2354
 Red. masses --      1.0891                 1.0890                 1.0902
 Frc consts  --      6.4704                 6.5259                 6.5824
 IR Inten    --     12.6758                 6.8402                 4.0107

                     61                     62                     63
                      A                      A                      A
 Frequencies --   3231.9505              3237.7855              3246.3889
 Red. masses --      1.1128                 1.0909                 1.1117
 Frc consts  --      6.8487                 6.7378                 6.9032
 IR Inten    --      7.6380                 0.9049                 3.5403

                     64                     65                     66
                      A                      A                      A
 Frequencies --   3482.9907              3501.9321              3537.6659
 Red. masses --      1.0769                 1.0638                 1.0642
 Frc consts  --      7.6971                 7.6862                 7.8474
 IR Inten    --     67.0036                57.0409               113.4947

 - Thermochemistry -
 -------------------
 Temperature   298.150 Kelvin.  Pressure   1.00000 Atm.
 Atom     1 has atomic number  6 and mass  12.00000

 Molecular mass:   185.06881 amu.
 Principal axes and moments of inertia in atomic units:
                           1         2         3
     Eigenvalues --  1169.665203990.557894298.64540
           X            0.99993   0.01123  -0.00454
           Y           -0.01105   0.99921   0.03810
           Z            0.00497  -0.03805   0.99926
 This molecule is an asymmetric top.
 Rotational symmetry number  1.
 Warning -- assumption of classical behavior for rotation
           may cause significant error
 Rotational temperatures (Kelvin)      0.07405     0.02170     0.02015
 Rotational constants (GHZ):           1.54296     0.45225     0.41984
    1 imaginary frequencies ignored.
 Zero-point vibrational energy     494532.5 (Joules/Mol)
                                  118.19611 (Kcal/Mol)
 Warning -- explicit consideration of  20 degrees of freedom as
           vibrations may cause significant error
 Vibrational temperatures:     64.07    91.58   104.47   150.31   189.61
          (Kelvin)            255.04   312.24   376.96   444.50   480.16
                              510.95   541.56   617.82   688.57   713.67
                              768.47   787.20   805.23   853.99   871.81
                              900.33  1036.88  1049.53  1065.31  1136.90
                             1151.31  1235.24  1280.10  1326.59  1370.02
                             1394.93  1464.79  1481.14  1526.36  1546.13
                             1561.79  1587.11  1675.69  1729.82  1769.01
                             1839.33  1873.42  1910.32  1973.05  1976.21
                             2007.26  2062.67  2183.71  2219.52  2238.57
                             2301.85  2318.03  2589.01  2599.98  4526.85
                             4537.82  4568.88  4588.57  4605.86  4650.05
                             4658.45  4670.82  5011.24  5038.49  5089.91

 Zero-point correction=                           0.188357 (Hartree/Particle)
 Thermal correction to Energy=                    0.200932
 Thermal correction to Enthalpy=                  0.201876
 Thermal correction to Gibbs Free Energy=         0.148969
 Sum of electronic and zero-point Energies=           -663.107900
 Sum of electronic and thermal Energies=              -663.095326
 Sum of electronic and thermal Enthalpies=            -663.094382
 Sum of electronic and thermal Free Energies=         -663.147289

                     E (Thermal)             CV                S
                      KCal/Mol        Cal/Mol-Kelvin    Cal/Mol-Kelvin
 Total                  126.087             47.729            111.353
 Electronic               0.000              0.000              0.000
 Translational            0.889              2.981             41.553
 Rotational               0.889              2.981             31.373
 Vibrational            124.309             41.767             38.426
 Vibration     1          0.595              1.980              5.047
 Vibration     2          0.597              1.972              4.341
 Vibration     3          0.599              1.967              4.081
 Vibration     4          0.605              1.946              3.369
 Vibration     5          0.612              1.922              2.920
 Vibration     6          0.628              1.870              2.357
 Vibration     7          0.646              1.815              1.984
 Vibration     8          0.669              1.742              1.648
 Vibration     9          0.698              1.657              1.368
 Vibration    10          0.715              1.608              1.242
 Vibration    11          0.731              1.565              1.143
 Vibration    12          0.747              1.520              1.054
 Vibration    13          0.791              1.406              0.861
 Vibration    14          0.835              1.298              0.714
 Vibration    15          0.852              1.259              0.668
 Vibration    16          0.889              1.175              0.578
 Vibration    17          0.902              1.146              0.550
 Vibration    18          0.915              1.119              0.525
 Vibration    19          0.951              1.046              0.461
 Vibration    20          0.965              1.019              0.440

 Optimization completed.
    -- Stationary point found.
 Normal termination of Gaussian 09 at Mon Mar 20 12:31:21 2017.
