 Gaussian 09, Revision D.01,
 Gaussian 09:  EM64L-G09RevD.01 24-Apr-2013

 ----------------------------------------------------------------------
 #p b3lyp empiricaldispersion=gd3bj cc-pVTZ scrf=(pcm,solvent=1,4-dioxa
 ne)
 ----------------------------------------------------------------------

 -------------------
 Title Card Required
 -------------------
 Symbolic Z-matrix:
 Charge =  0 Multiplicity = 1

                         Standard orientation:
 ---------------------------------------------------------------------
 Center     Atomic      Atomic             Coordinates (Angstroms)
 Number     Number       Type             X           Y           Z
 ---------------------------------------------------------------------
      1          6           0        1.834938   -1.351239    1.382702
      2          1           0        2.345560   -0.851966    2.210360
      3          6           0        2.599901   -1.914291    0.369934
      4          1           0        3.688705   -1.927953    0.447396
      5          1           0        2.175623   -2.659233   -0.302961
      6          6           0        0.455065   -1.155932    1.263541
      7          1           0       -0.058150   -0.516464    1.979626
      8          6           0       -0.225112   -1.532381    0.098927
      9          1           0        0.105170   -2.421407   -0.436498
     10          7           0       -1.598774   -1.299071   -0.103228
     11          1           0       -2.067326   -1.855064   -0.808494
     12          6           0       -2.271181   -0.163475    0.281606
     13          8           0       -1.835742    0.719771    0.995870
     14          8           0       -3.515665   -0.181424   -0.253431
     15          6           0        2.176029   -0.458946   -1.312497
     16          1           0        2.706694   -1.093538   -2.022396
     17          6           0        0.785509   -0.322311   -1.386962
     18          1           0        0.259019   -0.825293   -2.200311
     19          1           0        0.325705    0.586549   -1.001595
     20          6           0        3.033054    0.576350   -0.707078
     21          8           0        4.237000    0.676532   -0.865157
     22          8           0        2.321474    1.423158    0.079938
     23          6           0        3.092900    2.413141    0.769404
     24          1           0        2.370447    3.003173    1.345981
     25          1           0        3.823473    1.937511    1.441624
     26          1           0        3.635639    3.053345    0.058090
     27          6           0       -4.347176    0.953075    0.082273
     28          1           0       -4.420962    1.027936    1.178334
     29          1           0       -3.859531    1.870663   -0.282788
     30          6           0       -5.695687    0.728290   -0.566901
     31          1           0       -6.363987    1.572934   -0.338555
     32          1           0       -5.597612    0.649743   -1.660811
     33          1           0       -6.163020   -0.195428   -0.191867
 ---------------------------------------------------------------------

 SCF Done:  E(RB3LYP) =  -785.351963380     A.U. after   13 cycles

 The electronic state is 1-A.
 Alpha  occ. eigenvalues --  -19.17886 -19.16533 -19.11371 -19.10135 -14.36773
 Alpha  occ. eigenvalues --  -10.33312 -10.29295 -10.23991 -10.23870 -10.22169
 Alpha  occ. eigenvalues --  -10.19142 -10.18867 -10.18559 -10.17877 -10.17876
 Alpha  occ. eigenvalues --  -10.17792  -1.11765  -1.09466  -1.02604  -1.00512
 Alpha  occ. eigenvalues --   -0.95414  -0.82338  -0.78440  -0.77833  -0.73052
 Alpha  occ. eigenvalues --   -0.71109  -0.67152  -0.62934  -0.62379  -0.59871
 Alpha  occ. eigenvalues --   -0.57110  -0.55709  -0.53788  -0.51114  -0.50522
 Alpha  occ. eigenvalues --   -0.49857  -0.47821  -0.47322  -0.47053  -0.45275
 Alpha  occ. eigenvalues --   -0.44977  -0.44195  -0.42744  -0.41832  -0.41640
 Alpha  occ. eigenvalues --   -0.40193  -0.39976  -0.38607  -0.38017  -0.37613
 Alpha  occ. eigenvalues --   -0.36646  -0.36159  -0.35878  -0.35366  -0.31336
 Alpha  occ. eigenvalues --   -0.31072  -0.29981  -0.29346  -0.27406  -0.24239
 Alpha  occ. eigenvalues --   -0.22408
 Alpha virt. eigenvalues --   -0.04638  -0.02006   0.01967   0.03044   0.03656
 Alpha virt. eigenvalues --    0.04130   0.05326   0.05883   0.07197   0.07828
 Alpha virt. eigenvalues --    0.08209   0.08852   0.09554   0.10148   0.10351

 Mulliken charges:
               1
     1  C   -0.104087
     2  H    0.121132
     3  C   -0.252475
     4  H    0.129884
     5  H    0.117266
     6  C   -0.106116
     7  H    0.123652
     8  C   -0.031854
     9  H    0.143121
    10  N   -0.123957
    11  H    0.157932
    12  C    0.352034
    13  O   -0.380020
    14  O   -0.272491
    15  C   -0.131649
    16  H    0.135223
    17  C   -0.264895
    18  H    0.120404
    19  H    0.141613
    20  C    0.339091
    21  O   -0.385342
    22  O   -0.240929
    23  C   -0.107573
    24  H    0.108227
    25  H    0.088341
    26  H    0.095895
    27  C    0.031081
    28  H    0.089838
    29  H    0.090696
    30  C   -0.277278
    31  H    0.098246
    32  H    0.096928
    33  H    0.098062
 Sum of Mulliken charges =   0.00000

 Dipole moment (field-independent basis, Debye):
    X=             -4.7932    Y=             -1.6542    Z=             -0.8195  Tot=              5.1364
 Quadrupole moment (field-independent basis, Debye-Ang):
   XX=            -99.9799   YY=            -88.6367   ZZ=            -95.7874
   XY=             -1.7435   XZ=              9.6496   YZ=              6.2043

 Normal termination of Gaussian 09 at Mon Mar 20 19:14:32 2017.
