 Gaussian 09, Revision D.01,
 Gaussian 09:  EM64L-G09RevD.01 24-Apr-2013

 ----------------------------------------------------------------------
 #p b3lyp empiricaldispersion=gd3bj midix scrf=(pcm,solvent=1,4-dioxane
 ) opt=modredundant freq=noraman
 ----------------------------------------------------------------------

 -------------------
 Title Card Required
 -------------------
 Symbolic Z-matrix:
 Charge =  0 Multiplicity = 1

 SCF Done:  E(RB3LYP) =  -663.295919703     A.U. after   14 cycles
 SCF Done:  E(RB3LYP) =  -663.291522236     A.U. after   12 cycles
 SCF Done:  E(RB3LYP) =  -663.296066987     A.U. after    9 cycles
 SCF Done:  E(RB3LYP) =  -663.293022229     A.U. after   12 cycles
 SCF Done:  E(RB3LYP) =  -663.296124430     A.U. after    9 cycles
 SCF Done:  E(RB3LYP) =  -663.296038896     A.U. after   12 cycles
 SCF Done:  E(RB3LYP) =  -663.296258103     A.U. after    8 cycles
 SCF Done:  E(RB3LYP) =  -663.296320672     A.U. after   11 cycles
 SCF Done:  E(RB3LYP) =  -663.296459858     A.U. after   11 cycles
 SCF Done:  E(RB3LYP) =  -663.296704230     A.U. after   11 cycles
 SCF Done:  E(RB3LYP) =  -663.296861533     A.U. after    9 cycles
 SCF Done:  E(RB3LYP) =  -663.297108305     A.U. after   11 cycles
 SCF Done:  E(RB3LYP) =  -663.297250054     A.U. after   11 cycles
 SCF Done:  E(RB3LYP) =  -663.297271142     A.U. after   10 cycles
 SCF Done:  E(RB3LYP) =  -663.297285020     A.U. after    9 cycles
 SCF Done:  E(RB3LYP) =  -663.297287851     A.U. after    9 cycles
 SCF Done:  E(RB3LYP) =  -663.297288300     A.U. after    8 cycles
 SCF Done:  E(RB3LYP) =  -663.297288261     A.U. after    8 cycles
 SCF Done:  E(RB3LYP) =  -663.297288184     A.U. after    8 cycles
 Optimization completed.
    -- Stationary point found.
 Normal termination of Gaussian 09 at Mon Mar 20 12:14:59 2017.

 -----------------------------------------------------------------
 #P Geom=AllCheck Guess=TCheck SCRF=Check GenChk RB3LYP/MIDIx Freq
 -----------------------------------------------------------------

 Structure from the checkpoint file:  "/scratch/ekwan_da_meta_endo-b3lyp_d3bj-midix-freeze/Gau-19317.chk"
 -------------------
 Title Card Required
 -------------------
 Charge =  0 Multiplicity = 1

                         Standard orientation:
 ---------------------------------------------------------------------
 Center     Atomic      Atomic             Coordinates (Angstroms)
 Number     Number       Type             X           Y           Z
 ---------------------------------------------------------------------
      1          6           0        1.161525    1.594942   -0.966748
      2          1           0        1.589598    1.502575   -1.964002
      3          6           0        1.982033    1.942275    0.056098
      4          1           0        3.039053    2.132995   -0.113529
      5          1           0        1.621475    2.130032    1.063355
      6          6           0       -0.196742    1.188804   -0.830583
      7          1           0       -0.697812    0.758181   -1.689236
      8          6           0       -0.816252    1.094793    0.392408
      9          1           0       -0.469883    1.694641    1.228484
     10          7           0       -2.159065    0.688322    0.567441
     11          1           0       -2.611241    0.916233    1.455197
     12          6           0       -2.770199   -0.294086   -0.181662
     13          8           0       -2.308162   -0.838618   -1.177355
     14          8           0       -4.000858   -0.579869    0.355993
     15          6           0        1.569999   -0.484424    1.239081
     16          1           0        2.113885   -0.116612    2.103278
     17          6           0        0.210262   -0.602339    1.222175
     18          1           0       -0.350792   -0.461128    2.143969
     19          1           0       -0.267520   -1.201578    0.453298
     20          6           0        2.414276   -0.951634    0.136268
     21          8           0        3.635814   -1.031282    0.130536
     22          8           0        1.654160   -1.327248   -0.957031
     23          1           0       -4.366627   -1.281898   -0.245357
     24          1           0        2.336276   -1.605549   -1.626907
 ---------------------------------------------------------------------

 SCF Done:  E(RB3LYP) =  -663.297288184     A.U. after    1 cycles

 The electronic state is 1-A.
 Alpha  occ. eigenvalues --  -19.07468 -19.04957 -19.01238 -18.98848 -14.29299
 Alpha  occ. eigenvalues --  -10.28309 -10.23073 -10.18250 -10.12999 -10.12380
 Alpha  occ. eigenvalues --  -10.12070 -10.12059 -10.12023  -1.10845  -1.07255
 Alpha  occ. eigenvalues --   -1.01685  -0.98576  -0.95295  -0.82256  -0.78299
 Alpha  occ. eigenvalues --   -0.74078  -0.66895  -0.64418  -0.60308  -0.57397
 Alpha  occ. eigenvalues --   -0.56249  -0.53208  -0.50289  -0.47823  -0.47463
 Alpha  occ. eigenvalues --   -0.47029  -0.45396  -0.44788  -0.44294  -0.42921
 Alpha  occ. eigenvalues --   -0.42142  -0.40702  -0.38098  -0.37469  -0.37089
 Alpha  occ. eigenvalues --   -0.36355  -0.35551  -0.31172  -0.29357  -0.28686
 Alpha  occ. eigenvalues --   -0.27552  -0.25244  -0.24433  -0.20482
 Alpha virt. eigenvalues --   -0.04734   0.00301   0.04924   0.05858   0.07320
 Alpha virt. eigenvalues --    0.08624   0.09339   0.11328   0.11598   0.13293
 Alpha virt. eigenvalues --    0.14108   0.15804   0.18014   0.18417   0.20781

 Mulliken charges:
               1
     1  C   -0.189383
     2  H    0.164130
     3  C   -0.301104
     4  H    0.170921
     5  H    0.160212
     6  C   -0.155385
     7  H    0.182829
     8  C    0.086385
     9  H    0.194727
    10  N   -0.756346
    11  H    0.326042
    12  C    1.054757
    13  O   -0.595023
    14  O   -0.628934
    15  C   -0.254581
    16  H    0.167913
    17  C   -0.311523
    18  H    0.166246
    19  H    0.197997
    20  C    0.787186
    21  O   -0.606936
    22  O   -0.613422
    23  H    0.390745
    24  H    0.362550
 Sum of Mulliken charges =   0.00000

 Dipole moment (field-independent basis, Debye):
    X=             -4.1451    Y=              1.2076    Z=              1.6079  Tot=              4.6071
 Quadrupole moment (field-independent basis, Debye-Ang):
   XX=            -77.1624   YY=            -75.2341   ZZ=            -69.0212
   XY=              5.4131   XZ=             -6.9623   YZ=              4.5141

  Exact polarizability: 162.594  12.974  95.697  -3.236   0.346 102.633
 Approx polarizability: 235.597  16.441 135.311  -2.185  -2.665 161.965

 ******    1 imaginary frequencies (negative Signs) ******

                      1                      2                      3
                      A                      A                      A
 Frequencies --   -148.7066                41.1031                66.2851
 Red. masses --      5.5954                 6.6522                 5.6130
 Frc consts  --      0.0729                 0.0066                 0.0145
 IR Inten    --      5.2574                 0.2436                 0.4769

                      4                      5                      6
                      A                      A                      A
 Frequencies --     68.4557               103.3700               136.5150
 Red. masses --     10.5625                 9.1773                 5.1211
 Frc consts  --      0.0292                 0.0578                 0.0562
 IR Inten    --      5.0088                 1.2035                 1.7584

                      7                      8                      9
                      A                      A                      A
 Frequencies --    157.1126               206.7898               237.4415
 Red. masses --      5.2801                 5.1484                 3.8821
 Frc consts  --      0.0768                 0.1297                 0.1290
 IR Inten    --      0.1367                 1.6123                 2.4535

                     10                     11                     12
                      A                      A                      A
 Frequencies --    280.6557               313.3627               349.6931
 Red. masses --      3.4429                 4.1619                 4.0612
 Frc consts  --      0.1598                 0.2408                 0.2926
 IR Inten    --      1.0402                 0.3213                10.4494

                     13                     14                     15
                      A                      A                      A
 Frequencies --    360.4540               391.0274               418.2792
 Red. masses --      4.0202                 2.3970                 3.0782
 Frc consts  --      0.3077                 0.2159                 0.3173
 IR Inten    --      2.7354                40.6601                10.3994

                     16                     17                     18
                      A                      A                      A
 Frequencies --    474.1276               517.6713               540.7736
 Red. masses --      1.1349                 3.5117                 1.8008
 Frc consts  --      0.1503                 0.5545                 0.3103
 IR Inten    --    187.8987                61.7048                34.2403

                     19                     20                     21
                      A                      A                      A
 Frequencies --    542.7952               581.1376               594.7629
 Red. masses --      1.8923                 2.4291                 1.3503
 Frc consts  --      0.3285                 0.4833                 0.2814
 IR Inten    --      3.0581                15.4592                72.9142

                     22                     23                     24
                      A                      A                      A
 Frequencies --    607.6264               653.6344               688.6572
 Red. masses --      2.7702                 1.4212                 2.1945
 Frc consts  --      0.6026                 0.3578                 0.6132
 IR Inten    --      9.8272                17.5252                 9.9759

                     25                     26                     27
                      A                      A                      A
 Frequencies --    730.4813               779.9775               834.8013
 Red. masses --      9.0258                 4.6607                 2.4019
 Frc consts  --      2.8376                 1.6706                 0.9862
 IR Inten    --     37.3411                 6.8486                33.3122

                     28                     29                     30
                      A                      A                      A
 Frequencies --    850.5445               891.9853               925.5574
 Red. masses --      2.4303                 1.5462                 1.6940
 Frc consts  --      1.0359                 0.7248                 0.8550
 IR Inten    --     22.3799                15.9982                61.2000

                     31                     32                     33
                      A                      A                      A
 Frequencies --    931.8276               992.6548              1008.6061
 Red. masses --      2.3261                 1.1688                 1.3706
 Frc consts  --      1.1900                 0.6785                 0.8215
 IR Inten    --     26.5911                58.4257                43.0093

                     34                     35                     36
                      A                      A                      A
 Frequencies --   1041.1585              1059.5204              1083.5834
 Red. masses --      1.2044                 1.9291                 1.3962
 Frc consts  --      0.7692                 1.2759                 0.9659
 IR Inten    --      1.5431                 2.9628                63.4760

                     37                     38                     39
                      A                      A                      A
 Frequencies --   1096.3220              1121.2725              1165.1976
 Red. masses --      1.7881                 1.2510                 2.2530
 Frc consts  --      1.2663                 0.9267                 1.8023
 IR Inten    --      8.8863                43.7856               544.2307

                     40                     41                     42
                      A                      A                      A
 Frequencies --   1202.8905              1227.4489              1316.7466
 Red. masses --      1.6292                 1.8898                 1.5260
 Frc consts  --      1.3889                 1.6776                 1.5589
 IR Inten    --    122.3189               118.1090                16.1482

                     43                     44                     45
                      A                      A                      A
 Frequencies --   1331.3944              1358.4097              1369.2981
 Red. masses --      1.4514                 1.5613                 2.0214
 Frc consts  --      1.5158                 1.6975                 2.2330
 IR Inten    --     20.0529                 2.1313                25.1423

                     46                     47                     48
                      A                      A                      A
 Frequencies --   1377.8162              1391.2402              1466.3153
 Red. masses --      1.5230                 1.6012                 1.5771
 Frc consts  --      1.7035                 1.8260                 1.9979
 IR Inten    --     27.4366                49.6538                24.4686

                     49                     50                     51
                      A                      A                      A
 Frequencies --   1507.1614              1549.6926              1586.9054
 Red. masses --      1.3662                 2.1685                 1.9431
 Frc consts  --      1.8284                 3.0683                 2.8830
 IR Inten    --     16.2795               577.2932                32.2198

                     52                     53                     54
                      A                      A                      A
 Frequencies --   1632.7868              1659.4185              1796.1486
 Red. masses --      2.8141                 2.9181                 8.4666
 Frc consts  --      4.4202                 4.7344                16.0933
 IR Inten    --      6.0473                23.0548               439.3568

                     55                     56                     57
                      A                      A                      A
 Frequencies --   1802.6304              3149.8251              3167.1550
 Red. masses --      8.0113                 1.0594                 1.0760
 Frc consts  --     15.3380                 6.1929                 6.3590
 IR Inten    --    231.6581                 8.8678                16.4184

                     58                     59                     60
                      A                      A                      A
 Frequencies --   3171.9158              3199.0621              3211.2163
 Red. masses --      1.0710                 1.0895                 1.0921
 Frc consts  --      6.3485                 6.5695                 6.6351
 IR Inten    --      6.1912                 7.4156                 4.0196

                     61                     62                     63
                      A                      A                      A
 Frequencies --   3245.1527              3247.4721              3249.6441
 Red. masses --      1.0930                 1.1101                 1.1112
 Frc consts  --      6.7815                 6.8979                 6.9140
 IR Inten    --      4.0750                 4.7208                 6.9389

                     64                     65                     66
                      A                      A                      A
 Frequencies --   3485.5567              3506.5200              3535.8853
 Red. masses --      1.0771                 1.0638                 1.0643
 Frc consts  --      7.7099                 7.7069                 7.8398
 IR Inten    --     76.7345                57.9264               121.9219

 - Thermochemistry -
 -------------------
 Temperature   298.150 Kelvin.  Pressure   1.00000 Atm.
 Atom     1 has atomic number  6 and mass  12.00000

 Molecular mass:   185.06881 amu.
 Principal axes and moments of inertia in atomic units:
                           1         2         3
     Eigenvalues --  1219.911053938.042264261.96268
           X            0.99989   0.01412  -0.00441
           Y           -0.01400   0.99956   0.02602
           Z            0.00477  -0.02596   0.99965
 This molecule is an asymmetric top.
 Rotational symmetry number  1.
 Warning -- assumption of classical behavior for rotation
           may cause significant error
 Rotational temperatures (Kelvin)      0.07100     0.02199     0.02032
 Rotational constants (GHZ):           1.47940     0.45828     0.42345
    1 imaginary frequencies ignored.
 Zero-point vibrational energy     494003.5 (Joules/Mol)
                                  118.06966 (Kcal/Mol)
 Warning -- explicit consideration of  21 degrees of freedom as
           vibrations may cause significant error
 Vibrational temperatures:     59.14    95.37    98.49   148.73   196.41
          (Kelvin)            226.05   297.52   341.62   403.80   450.86
                              503.13   518.61   562.60   601.81   682.16
                              744.81   778.05   780.96   836.13   855.73
                              874.24   940.43   990.82  1051.00  1122.21
                             1201.09  1223.74  1283.37  1331.67  1340.69
                             1428.21  1451.16  1497.99  1524.41  1559.03
                             1577.36  1613.26  1676.46  1730.69  1766.02
                             1894.50  1915.58  1954.45  1970.11  1982.37
                             2001.68  2109.70  2168.47  2229.66  2283.20
                             2349.21  2387.53  2584.25  2593.58  4531.89
                             4556.82  4563.67  4602.73  4620.22  4669.05
                             4672.38  4675.51  5014.93  5045.09  5087.34

 Zero-point correction=                           0.188156 (Hartree/Particle)
 Thermal correction to Energy=                    0.201087
 Thermal correction to Enthalpy=                  0.202031
 Thermal correction to Gibbs Free Energy=         0.148342
 Sum of electronic and zero-point Energies=           -663.109132
 Sum of electronic and thermal Energies=              -663.096201
 Sum of electronic and thermal Enthalpies=            -663.095257
 Sum of electronic and thermal Free Energies=         -663.148946

                     E (Thermal)             CV                S
                      KCal/Mol        Cal/Mol-Kelvin    Cal/Mol-Kelvin
 Total                  126.184             48.469            112.998
 Electronic               0.000              0.000              0.000
 Translational            0.889              2.981             41.553
 Rotational               0.889              2.981             31.393
 Vibrational            124.407             42.507             40.052
 Vibration     1          0.594              1.981              5.205
 Vibration     2          0.598              1.970              4.261
 Vibration     3          0.598              1.969              4.197
 Vibration     4          0.605              1.947              3.390
 Vibration     5          0.614              1.917              2.852
 Vibration     6          0.621              1.895              2.584
 Vibration     7          0.641              1.830              2.072
 Vibration     8          0.656              1.783              1.822
 Vibration     9          0.680              1.709              1.530
 Vibration    10          0.701              1.648              1.345
 Vibration    11          0.727              1.576              1.168
 Vibration    12          0.735              1.554              1.120
 Vibration    13          0.759              1.489              0.996
 Vibration    14          0.781              1.431              0.898
 Vibration    15          0.831              1.307              0.726
 Vibration    16          0.873              1.211              0.615
 Vibration    17          0.896              1.160              0.564
 Vibration    18          0.898              1.155              0.559
 Vibration    19          0.938              1.072              0.483
 Vibration    20          0.952              1.043              0.459
 Vibration    21          0.966              1.016              0.437

 Normal termination of Gaussian 09 at Mon Mar 20 12:16:22 2017.
