 Gaussian 09, Revision D.01,
 Gaussian 09:  EM64L-G09RevD.01 24-Apr-2013

 ----------------------------------------------------------------------
 #p b3lyp empiricaldispersion=gd3bj cc-pVTZ scrf=(pcm,solvent=1,4-dioxa
 ne)
 ----------------------------------------------------------------------

 -------------------
 Title Card Required
 -------------------
 Symbolic Z-matrix:
 Charge =  0 Multiplicity = 1

                         Standard orientation:
 ---------------------------------------------------------------------
 Center     Atomic      Atomic             Coordinates (Angstroms)
 Number     Number       Type             X           Y           Z
 ---------------------------------------------------------------------
      1          6           0       -0.299189    2.990533   -0.482345
      2          1           0       -0.021824    4.026998   -0.267166
      3          6           0       -1.645143    2.627249   -0.342293
      4          1           0       -2.379579    3.427017   -0.214425
      5          1           0       -2.032018    1.756555   -0.877636
      6          6           0        0.754104    2.073658   -0.626474
      7          1           0        1.782334    2.407488   -0.503777
      8          6           0        0.496996    0.715891   -0.735285
      9          1           0       -0.475835    0.383880   -1.088303
     10          7           0        1.405126   -0.323862   -0.675625
     11          1           0        0.988231   -1.242964   -0.518701
     12          6           0        2.733191   -0.215212   -0.309438
     13          8           0        3.374299    0.812593   -0.217290
     14          8           0        3.227016   -1.454491   -0.095411
     15          6           0       -0.901314    0.503421    1.410559
     16          1           0        0.067607    0.503808    1.906209
     17          6           0       -1.736523    1.629522    1.435177
     18          1           0       -1.462494    2.447181    2.104457
     19          1           0       -2.810116    1.466325    1.325626
     20          6           0       -1.290993   -0.770682    0.842968
     21          8           0       -0.598340   -1.788173    0.819182
     22          8           0       -2.512299   -0.723416    0.230454
     23          6           0       -2.949270   -1.943230   -0.401500
     24          1           0       -2.999023   -2.742021    0.355368
     25          1           0       -2.201202   -2.249164   -1.150732
     26          6           0        4.613500   -1.495794    0.274889
     27          1           0        4.780354   -0.948506    1.214299
     28          1           0        4.849662   -2.558481    0.402686
     29          1           0        5.239292   -1.052765   -0.513762
     30          6           0       -4.300162   -1.669001   -1.028089
     31          1           0       -4.677299   -2.578423   -1.521279
     32          1           0       -5.031184   -1.359952   -0.264891
     33          1           0       -4.229382   -0.870184   -1.783093
 ---------------------------------------------------------------------

 SCF Done:  E(RB3LYP) =  -785.360927131     A.U. after   13 cycles

 The electronic state is 1-A.
 Alpha  occ. eigenvalues --  -19.18209 -19.16659 -19.11826 -19.10365 -14.37056
 Alpha  occ. eigenvalues --  -10.33566 -10.29325 -10.24229 -10.23294 -10.23159
 Alpha  occ. eigenvalues --  -10.19573 -10.19033 -10.18938 -10.17888 -10.17719
 Alpha  occ. eigenvalues --  -10.17485  -1.12148  -1.09371  -1.02964  -1.00466
 Alpha  occ. eigenvalues --   -0.95855  -0.82415  -0.79162  -0.76029  -0.75193
 Alpha  occ. eigenvalues --   -0.71243  -0.66027  -0.65281  -0.61586  -0.59969
 Alpha  occ. eigenvalues --   -0.56944  -0.56102  -0.54246  -0.51639  -0.49841
 Alpha  occ. eigenvalues --   -0.49234  -0.48985  -0.47989  -0.47258  -0.45341
 Alpha  occ. eigenvalues --   -0.45098  -0.43521  -0.43108  -0.42707  -0.41765
 Alpha  occ. eigenvalues --   -0.40411  -0.39847  -0.38667  -0.37635  -0.37463
 Alpha  occ. eigenvalues --   -0.37300  -0.36270  -0.35482  -0.35234  -0.33068
 Alpha  occ. eigenvalues --   -0.31656  -0.30330  -0.29463  -0.27646  -0.25454
 Alpha  occ. eigenvalues --   -0.21187
 Alpha virt. eigenvalues --   -0.06789  -0.01620   0.02506   0.03501   0.04217
 Alpha virt. eigenvalues --    0.04700   0.05885   0.06528   0.06888   0.07309
 Alpha virt. eigenvalues --    0.08356   0.08728   0.10001   0.10114   0.10425

 Mulliken charges:
               1
     1  C   -0.087190
     2  H    0.125049
     3  C   -0.254522
     4  H    0.119094
     5  H    0.127791
     6  C   -0.141207
     7  H    0.140659
     8  C   -0.051021
     9  H    0.156674
    10  N   -0.098161
    11  H    0.169975
    12  C    0.362256
    13  O   -0.373483
    14  O   -0.248404
    15  C   -0.165233
    16  H    0.139611
    17  C   -0.207866
    18  H    0.125666
    19  H    0.134136
    20  C    0.318030
    21  O   -0.432757
    22  O   -0.272780
    23  C    0.019716
    24  H    0.092830
    25  H    0.080427
    26  C   -0.090756
    27  H    0.094415
    28  H    0.112776
    29  H    0.093986
    30  C   -0.280713
    31  H    0.096632
    32  H    0.098361
    33  H    0.096011
 Sum of Mulliken charges =   0.00000

 Dipole moment (field-independent basis, Debye):
    X=             -1.5510    Y=              0.0881    Z=             -0.7937  Tot=              1.7445
 Quadrupole moment (field-independent basis, Debye-Ang):
   XX=            -84.7014   YY=            -93.3963   ZZ=            -97.5113
   XY=             -7.2666   XZ=              4.1041   YZ=              5.9993

 Normal termination of Gaussian 09 at Mon Mar 20 19:15:19 2017.
