 Gaussian 09, Revision D.01,
 Gaussian 09:  EM64L-G09RevD.01 24-Apr-2013

 ----------------------------------------------------------------------
 #p b3lyp empiricaldispersion=gd3bj cc-pVQZ scrf=(pcm,solvent=1,4-dioxa
 ne)
 ----------------------------------------------------------------------

 -------------------
 Title Card Required
 -------------------
 Symbolic Z-matrix:
 Charge =  0 Multiplicity = 1

                         Standard orientation:
 ---------------------------------------------------------------------
 Center     Atomic      Atomic             Coordinates (Angstroms)
 Number     Number       Type             X           Y           Z
 ---------------------------------------------------------------------
      1          6           0       -0.299189    2.990533   -0.482345
      2          1           0       -0.021824    4.026998   -0.267166
      3          6           0       -1.645143    2.627249   -0.342293
      4          1           0       -2.379579    3.427017   -0.214425
      5          1           0       -2.032018    1.756555   -0.877636
      6          6           0        0.754104    2.073658   -0.626474
      7          1           0        1.782334    2.407488   -0.503777
      8          6           0        0.496996    0.715891   -0.735285
      9          1           0       -0.475835    0.383880   -1.088303
     10          7           0        1.405126   -0.323862   -0.675625
     11          1           0        0.988231   -1.242964   -0.518701
     12          6           0        2.733191   -0.215212   -0.309438
     13          8           0        3.374299    0.812593   -0.217290
     14          8           0        3.227016   -1.454491   -0.095411
     15          6           0       -0.901314    0.503421    1.410559
     16          1           0        0.067607    0.503808    1.906209
     17          6           0       -1.736523    1.629522    1.435177
     18          1           0       -1.462494    2.447181    2.104457
     19          1           0       -2.810116    1.466325    1.325626
     20          6           0       -1.290993   -0.770682    0.842968
     21          8           0       -0.598340   -1.788173    0.819182
     22          8           0       -2.512299   -0.723416    0.230454
     23          6           0       -2.949270   -1.943230   -0.401500
     24          1           0       -2.999023   -2.742021    0.355368
     25          1           0       -2.201202   -2.249164   -1.150732
     26          6           0        4.613500   -1.495794    0.274889
     27          1           0        4.780354   -0.948506    1.214299
     28          1           0        4.849662   -2.558481    0.402686
     29          1           0        5.239292   -1.052765   -0.513762
     30          6           0       -4.300162   -1.669001   -1.028089
     31          1           0       -4.677299   -2.578423   -1.521279
     32          1           0       -5.031184   -1.359952   -0.264891
     33          1           0       -4.229382   -0.870184   -1.783093
 ---------------------------------------------------------------------

 SCF Done:  E(RB3LYP) =  -785.422486863     A.U. after   13 cycles

 The electronic state is 1-A.
 Alpha  occ. eigenvalues --  -19.17758 -19.16159 -19.11496 -19.10028 -14.36744
 Alpha  occ. eigenvalues --  -10.33484 -10.29228 -10.24069 -10.23110 -10.22970
 Alpha  occ. eigenvalues --  -10.19419 -10.18878 -10.18775 -10.17733 -10.17553
 Alpha  occ. eigenvalues --  -10.17265  -1.12259  -1.09466  -1.03099  -1.00593
 Alpha  occ. eigenvalues --   -0.95953  -0.82512  -0.79244  -0.76105  -0.75277
 Alpha  occ. eigenvalues --   -0.71333  -0.66121  -0.65381  -0.61684  -0.60085
 Alpha  occ. eigenvalues --   -0.57077  -0.56219  -0.54383  -0.51776  -0.49999
 Alpha  occ. eigenvalues --   -0.49366  -0.49113  -0.48152  -0.47437  -0.45497
 Alpha  occ. eigenvalues --   -0.45227  -0.43653  -0.43245  -0.42842  -0.41899
 Alpha  occ. eigenvalues --   -0.40538  -0.39930  -0.38801  -0.37762  -0.37606
 Alpha  occ. eigenvalues --   -0.37432  -0.36403  -0.35619  -0.35371  -0.33229
 Alpha  occ. eigenvalues --   -0.31885  -0.30523  -0.29704  -0.27891  -0.25609
 Alpha  occ. eigenvalues --   -0.21357
 Alpha virt. eigenvalues --   -0.07007  -0.01939   0.01482   0.02726   0.02874
 Alpha virt. eigenvalues --    0.03473   0.04708   0.05386   0.05618   0.05824
 Alpha virt. eigenvalues --    0.06785   0.07108   0.08126   0.08530   0.08838

 Mulliken charges:
               1
     1  C   -0.138407
     2  H    0.133218
     3  C   -0.187825
     4  H    0.129653
     5  H    0.107447
     6  C   -0.178130
     7  H    0.163772
     8  C    0.091300
     9  H    0.146314
    10  N   -0.332680
    11  H    0.211879
    12  C    0.597733
    13  O   -0.465318
    14  O   -0.342968
    15  C   -0.262728
    16  H    0.139564
    17  C   -0.151391
    18  H    0.121878
    19  H    0.126990
    20  C    0.485899
    21  O   -0.507548
    22  O   -0.379158
    23  C    0.065366
    24  H    0.096753
    25  H    0.073985
    26  C   -0.028261
    27  H    0.076751
    28  H    0.115836
    29  H    0.078146
    30  C   -0.266315
    31  H    0.093436
    32  H    0.093907
    33  H    0.090904
 Sum of Mulliken charges =   0.00000

 Dipole moment (field-independent basis, Debye):
    X=             -1.6511    Y=              0.1600    Z=             -0.7913  Tot=              1.8379
 Quadrupole moment (field-independent basis, Debye-Ang):
   XX=            -85.0189   YY=            -93.7949   ZZ=            -97.8293
   XY=             -7.3165   XZ=              4.1396   YZ=              6.1465

 Normal termination of Gaussian 09 at Mon Mar 20 23:48:30 2017.
