 Gaussian 09, Revision D.01,
 Gaussian 09:  EM64L-G09RevD.01 24-Apr-2013

 ----------------------------------------------------------------------
 #p b3lyp empiricaldispersion=gd3bj 6-31g* scrf=(pcm,solvent=1,4-dioxan
 e) opt=(ts,calcfc,maxstep=5,noeigentest) freq=noraman
 ----------------------------------------------------------------------

 -------------------
 Title Card Required
 -------------------
 Symbolic Z-matrix:
 Charge =  0 Multiplicity = 1

 SCF Done:  E(RB3LYP) =  -667.115227691     A.U. after   14 cycles
 SCF Done:  E(RB3LYP) =  -667.117186591     A.U. after   11 cycles
 SCF Done:  E(RB3LYP) =  -667.118126595     A.U. after   11 cycles
 SCF Done:  E(RB3LYP) =  -667.118220876     A.U. after   11 cycles
 SCF Done:  E(RB3LYP) =  -667.118233313     A.U. after    9 cycles
 SCF Done:  E(RB3LYP) =  -667.118238076     A.U. after    9 cycles
 SCF Done:  E(RB3LYP) =  -667.118240220     A.U. after    8 cycles
 SCF Done:  E(RB3LYP) =  -667.118240892     A.U. after    8 cycles
 SCF Done:  E(RB3LYP) =  -667.118241473     A.U. after    8 cycles
 SCF Done:  E(RB3LYP) =  -667.118241640     A.U. after    8 cycles
 SCF Done:  E(RB3LYP) =  -667.118241754     A.U. after    7 cycles
 Optimization completed.
    -- Stationary point found.
 Normal termination of Gaussian 09 at Mon Mar 20 13:28:30 2017.

 --------------------------------------------------------------------
 #P Geom=AllCheck Guess=TCheck SCRF=Check GenChk RB3LYP/6-31G(d) Freq
 --------------------------------------------------------------------

 Structure from the checkpoint file:  "/scratch/ekwan_da_ortho_endo-b3lyp_d3bj-631gd-ts/Gau-19793.chk"
 -------------------
 Title Card Required
 -------------------
 Charge =  0 Multiplicity = 1

                         Standard orientation:
 ---------------------------------------------------------------------
 Center     Atomic      Atomic             Coordinates (Angstroms)
 Number     Number       Type             X           Y           Z
 ---------------------------------------------------------------------
      1          6           0        1.969473   -1.575350    0.670284
      2          1           0        2.318082   -1.769756    1.682179
      3          6           0        2.906036   -1.136729   -0.271487
      4          1           0        3.960530   -1.221275   -0.019915
      5          1           0        2.704356   -1.275760   -1.330162
      6          6           0        0.582351   -1.524966    0.483676
      7          1           0       -0.067366   -1.666455    1.336554
      8          6           0        0.022095   -1.105748   -0.708203
      9          1           0        0.589498   -1.129081   -1.627782
     10          7           0       -1.318411   -0.846746   -0.923764
     11          1           0       -1.577862   -0.553502   -1.855797
     12          6           0       -2.249205   -0.532330    0.046770
     13          8           0       -2.103882   -0.632691    1.249454
     14          8           0       -3.400491   -0.144725   -0.551148
     15          6           0        1.341151    1.183550   -0.807541
     16          1           0        1.132303    1.265326   -1.868909
     17          6           0        2.630050    0.875434   -0.358963
     18          1           0        3.450852    1.011064   -1.059258
     19          1           0        2.876572    1.112201    0.670114
     20          6           0        0.250425    1.590271    0.048373
     21          8           0       -0.862372    1.939599   -0.342070
     22          8           0        0.546586    1.549482    1.383521
     23          1           0       -4.014758    0.083115    0.168022
     24          1           0       -0.296323    1.733236    1.835796
 ---------------------------------------------------------------------

 SCF Done:  E(RB3LYP) =  -667.118241754     A.U. after    1 cycles

 The electronic state is 1-A.
 Alpha  occ. eigenvalues --  -19.19923 -19.16832 -19.13633 -19.10822 -14.39189
 Alpha  occ. eigenvalues --  -10.35226 -10.29351 -10.25090 -10.20171 -10.19900
 Alpha  occ. eigenvalues --  -10.19733 -10.18701 -10.18339  -1.11685  -1.07374
 Alpha  occ. eigenvalues --   -1.02133  -0.98107  -0.95808  -0.81782  -0.77111
 Alpha  occ. eigenvalues --   -0.73784  -0.67838  -0.64107  -0.60740  -0.58534
 Alpha  occ. eigenvalues --   -0.56582  -0.53793  -0.50790  -0.48121  -0.47516
 Alpha  occ. eigenvalues --   -0.47038  -0.46027  -0.44850  -0.44495  -0.42599
 Alpha  occ. eigenvalues --   -0.41717  -0.41330  -0.38177  -0.37921  -0.37102
 Alpha  occ. eigenvalues --   -0.36063  -0.35763  -0.33456  -0.31679  -0.29519
 Alpha  occ. eigenvalues --   -0.28558  -0.25739  -0.24183  -0.20175
 Alpha virt. eigenvalues --   -0.05445   0.00355   0.05137   0.07003   0.07396
 Alpha virt. eigenvalues --    0.08172   0.09922   0.11386   0.11831   0.13705
 Alpha virt. eigenvalues --    0.13898   0.15987   0.18321   0.18932   0.20975

 Mulliken charges:
               1
     1  C   -0.068085
     2  H    0.145674
     3  C   -0.360465
     4  H    0.158584
     5  H    0.166259
     6  C   -0.121574
     7  H    0.176833
     8  C    0.030875
     9  H    0.170660
    10  N   -0.582302
    11  H    0.367737
    12  C    0.760211
    13  O   -0.506782
    14  O   -0.593549
    15  C   -0.174923
    16  H    0.136248
    17  C   -0.328366
    18  H    0.167584
    19  H    0.183811
    20  C    0.594893
    21  O   -0.562105
    22  O   -0.605356
    23  H    0.434124
    24  H    0.410014
 Sum of Mulliken charges =   0.00000

 Dipole moment (field-independent basis, Debye):
    X=              1.2307    Y=             -1.9230    Z=             -1.7020  Tot=              2.8477
 Quadrupole moment (field-independent basis, Debye-Ang):
   XX=            -62.4091   YY=            -81.9151   ZZ=            -69.7862
   XY=             -0.7198   XZ=             -1.8829   YZ=              4.1102

  Exact polarizability: 173.613  -7.697 112.855   0.801 -11.781 102.806
 Approx polarizability: 246.396 -11.261 185.379  12.646 -31.100 161.402

 ******    1 imaginary frequencies (negative Signs) ******

                      1                      2                      3
                      A                      A                      A
 Frequencies --   -424.6208                45.6072                69.0322
 Red. masses --      9.5925                 5.5089                 6.4131
 Frc consts  --      1.0190                 0.0068                 0.0180
 IR Inten    --     44.7867                 1.4307                 1.8540

                      4                      5                      6
                      A                      A                      A
 Frequencies --     85.7160               117.3743               142.6042
 Red. masses --      9.6817                 6.3254                 9.5368
 Frc consts  --      0.0419                 0.0513                 0.1143
 IR Inten    --      7.9953                 1.1343                 0.9872

                      7                      8                      9
                      A                      A                      A
 Frequencies --    156.2087               183.0479               236.0128
 Red. masses --      4.3238                 5.9636                 3.8959
 Frc consts  --      0.0622                 0.1177                 0.1279
 IR Inten    --      2.1200                 6.5680                 4.0176

                     10                     11                     12
                      A                      A                      A
 Frequencies --    276.8126               296.0954               358.5379
 Red. masses --      4.1936                 3.0131                 4.5501
 Frc consts  --      0.1893                 0.1556                 0.3446
 IR Inten    --      3.1307                 2.5283                 4.1870

                     13                     14                     15
                      A                      A                      A
 Frequencies --    386.7825               412.8470               458.2007
 Red. masses --      3.9735                 3.4434                 2.1877
 Frc consts  --      0.3502                 0.3458                 0.2706
 IR Inten    --      7.7622                18.2156                52.1636

                     16                     17                     18
                      A                      A                      A
 Frequencies --    491.1306               524.0467               527.8479
 Red. masses --      1.1821                 2.6019                 1.6175
 Frc consts  --      0.1680                 0.4210                 0.2655
 IR Inten    --    142.3210                40.6054                61.5130

                     19                     20                     21
                      A                      A                      A
 Frequencies --    556.3088               587.7809               590.4484
 Red. masses --      2.5626                 2.9285                 1.8448
 Frc consts  --      0.4673                 0.5961                 0.3789
 IR Inten    --     43.8608                63.5510                35.5232

                     22                     23                     24
                      A                      A                      A
 Frequencies --    621.1302               718.5882               746.1418
 Red. masses --      1.7937                 2.2778                 9.5234
 Frc consts  --      0.4077                 0.6930                 3.1238
 IR Inten    --     35.7827                 9.3930                58.0246

                     25                     26                     27
                      A                      A                      A
 Frequencies --    759.8888               786.2309               807.9874
 Red. masses --      2.0015                 1.7658                 2.6824
 Frc consts  --      0.6809                 0.6431                 1.0318
 IR Inten    --     49.2271                14.6266                43.4951

                     28                     29                     30
                      A                      A                      A
 Frequencies --    845.8067               858.4919               921.7164
 Red. masses --      2.0057                 1.7522                 1.7296
 Frc consts  --      0.8454                 0.7609                 0.8657
 IR Inten    --     20.9232                11.2066                56.7162

                     31                     32                     33
                      A                      A                      A
 Frequencies --    940.6688               945.9666               972.4369
 Red. masses --      2.5687                 1.2172                 1.3410
 Frc consts  --      1.3392                 0.6417                 0.7471
 IR Inten    --     13.4613                46.9642                50.6027

                     34                     35                     36
                      A                      A                      A
 Frequencies --   1005.9226              1054.7041              1084.9827
 Red. masses --      1.2838                 1.5774                 1.4841
 Frc consts  --      0.7654                 1.0338                 1.0294
 IR Inten    --     26.6223                24.1308                51.1066

                     37                     38                     39
                      A                      A                      A
 Frequencies --   1099.2499              1120.3033              1169.4044
 Red. masses --      1.2364                 1.4401                 2.3128
 Frc consts  --      0.8802                 1.0649                 1.8634
 IR Inten    --     16.3307                 3.0340               619.2387

                     40                     41                     42
                      A                      A                      A
 Frequencies --   1210.4193              1243.6611              1259.6134
 Red. masses --      1.5743                 1.8697                 1.6931
 Frc consts  --      1.3589                 1.7039                 1.5827
 IR Inten    --    253.6933                26.0546                14.9693

                     43                     44                     45
                      A                      A                      A
 Frequencies --   1301.5436              1333.1448              1370.9689
 Red. masses --      1.3961                 1.4807                 1.8390
 Frc consts  --      1.3934                 1.5505                 2.0366
 IR Inten    --      3.1441                78.0395                45.8204

                     46                     47                     48
                      A                      A                      A
 Frequencies --   1372.1620              1388.6836              1443.1431
 Red. masses --      1.9016                 1.5656                 2.0382
 Frc consts  --      2.1095                 1.7788                 2.5010
 IR Inten    --     38.8888                29.0994                64.6447

                     49                     50                     51
                      A                      A                      A
 Frequencies --   1504.2007              1536.8656              1567.9225
 Red. masses --      1.5437                 1.5757                 2.1467
 Frc consts  --      2.0580                 2.1928                 3.1094
 IR Inten    --     21.4030                46.6025               571.5386

                     52                     53                     54
                      A                      A                      A
 Frequencies --   1601.6057              1641.4891              1751.2791
 Red. masses --      2.5085                 2.6901                 7.8286
 Frc consts  --      3.7911                 4.2706                14.1463
 IR Inten    --     12.5184                13.5531               604.8094

                     55                     56                     57
                      A                      A                      A
 Frequencies --   1829.4351              3145.7855              3153.5980
 Red. masses --      8.5226                 1.0581                 1.0590
 Frc consts  --     16.8056                 6.1691                 6.2051
 IR Inten    --    328.6630                 6.4072                18.3064

                     58                     59                     60
                      A                      A                      A
 Frequencies --   3178.6502              3211.7813              3220.3816
 Red. masses --      1.0900                 1.0905                 1.1140
 Frc consts  --      6.4890                 6.6279                 6.8070
 IR Inten    --     11.0101                 6.9333                17.0457

                     61                     62                     63
                      A                      A                      A
 Frequencies --   3245.5058              3253.7769              3262.0757
 Red. masses --      1.1112                 1.0930                 1.0870
 Frc consts  --      6.8963                 6.8180                 6.8151
 IR Inten    --      5.2135                 5.5819                 1.0937

                     64                     65                     66
                      A                      A                      A
 Frequencies --   3625.3762              3710.9096              3739.6534
 Red. masses --      1.0774                 1.0643                 1.0649
 Frc consts  --      8.3429                 8.6353                 8.7745
 IR Inten    --     73.8633                64.5538               148.6853

 - Thermochemistry -
 -------------------
 Temperature   298.150 Kelvin.  Pressure   1.00000 Atm.
 Atom     1 has atomic number  6 and mass  12.00000

 Molecular mass:   185.06881 amu.
 Principal axes and moments of inertia in atomic units:
                           1         2         3
     Eigenvalues --  1429.713192869.318163442.97188
           X            0.99991  -0.01215  -0.00543
           Y            0.01215   0.99993  -0.00036
           Z            0.00543   0.00029   0.99999
 This molecule is an asymmetric top.
 Rotational symmetry number  1.
 Warning -- assumption of classical behavior for rotation
           may cause significant error
 Rotational temperatures (Kelvin)      0.06058     0.03019     0.02516
 Rotational constants (GHZ):           1.26231     0.62898     0.52418
    1 imaginary frequencies ignored.
 Zero-point vibrational energy     496843.2 (Joules/Mol)
                                  118.74837 (Kcal/Mol)
 Warning -- explicit consideration of  20 degrees of freedom as
           vibrations may cause significant error
 Vibrational temperatures:     65.62    99.32   123.33   168.88   205.18
          (Kelvin)            224.75   263.36   339.57   398.27   426.01
                              515.86   556.49   593.99   659.25   706.63
                              753.99   759.45   800.40   845.68   849.52
                              893.67  1033.89  1073.53  1093.31  1131.21
                             1162.51  1216.93  1235.18  1326.14  1353.41
                             1361.03  1399.12  1447.30  1517.48  1561.05
                             1581.57  1611.86  1682.51  1741.52  1789.35
                             1812.30  1872.63  1918.10  1972.52  1974.23
                             1998.00  2076.36  2164.21  2211.20  2255.89
                             2304.35  2361.73  2519.70  2632.15  4526.08
                             4537.32  4573.36  4621.03  4633.41  4669.55
                             4681.45  4693.39  5216.10  5339.16  5380.52

 Zero-point correction=                           0.189238 (Hartree/Particle)
 Thermal correction to Energy=                    0.202007
 Thermal correction to Enthalpy=                  0.202951
 Thermal correction to Gibbs Free Energy=         0.150012
 Sum of electronic and zero-point Energies=           -666.929004
 Sum of electronic and thermal Energies=              -666.916235
 Sum of electronic and thermal Enthalpies=            -666.915291
 Sum of electronic and thermal Free Energies=         -666.968230

                     E (Thermal)             CV                S
                      KCal/Mol        Cal/Mol-Kelvin    Cal/Mol-Kelvin
 Total                  126.761             48.211            111.419
 Electronic               0.000              0.000              0.000
 Translational            0.889              2.981             41.553
 Rotational               0.889              2.981             31.025
 Vibrational            124.984             42.249             38.841
 Vibration     1          0.595              1.979              4.999
 Vibration     2          0.598              1.969              4.181
 Vibration     3          0.601              1.959              3.756
 Vibration     4          0.608              1.935              3.143
 Vibration     5          0.616              1.911              2.769
 Vibration     6          0.620              1.896              2.595
 Vibration     7          0.631              1.863              2.297
 Vibration     8          0.655              1.786              1.833
 Vibration     9          0.678              1.716              1.553
 Vibration    10          0.690              1.681              1.439
 Vibration    11          0.733              1.558              1.128
 Vibration    12          0.755              1.498              1.013
 Vibration    13          0.777              1.442              0.917
 Vibration    14          0.816              1.343              0.771
 Vibration    15          0.847              1.270              0.681
 Vibration    16          0.879              1.197              0.601
 Vibration    17          0.883              1.188              0.592
 Vibration    18          0.912              1.126              0.531
 Vibration    19          0.945              1.058              0.471
 Vibration    20          0.948              1.052              0.466

 Normal termination of Gaussian 09 at Mon Mar 20 13:32:32 2017.
