 Gaussian 09, Revision D.01,
 Gaussian 09:  EM64L-G09RevD.01 24-Apr-2013

 ----------------------------------------------------------------------
 #p b3lyp empiricaldispersion=gd3bj midix scrf=(pcm,solvent=1,4-dioxane
 ) opt=(ts,calcfc,maxstep=5,noeigentest) freq=noraman
 ----------------------------------------------------------------------

 -------------------
 Title Card Required
 -------------------
 Symbolic Z-matrix:
 Charge =  0 Multiplicity = 1

 SCF Done:  E(RB3LYP) =  -663.309982453     A.U. after   14 cycles
 SCF Done:  E(RB3LYP) =  -663.309815113     A.U. after   11 cycles
 SCF Done:  E(RB3LYP) =  -663.309697474     A.U. after   10 cycles
 SCF Done:  E(RB3LYP) =  -663.309634359     A.U. after   10 cycles
 SCF Done:  E(RB3LYP) =  -663.309609101     A.U. after   10 cycles
 SCF Done:  E(RB3LYP) =  -663.309605731     A.U. after   10 cycles
 SCF Done:  E(RB3LYP) =  -663.309611249     A.U. after   10 cycles
 SCF Done:  E(RB3LYP) =  -663.309617982     A.U. after   10 cycles
 SCF Done:  E(RB3LYP) =  -663.309623652     A.U. after   10 cycles
 SCF Done:  E(RB3LYP) =  -663.309628009     A.U. after   10 cycles
 SCF Done:  E(RB3LYP) =  -663.309637055     A.U. after   10 cycles
 SCF Done:  E(RB3LYP) =  -663.309641000     A.U. after   10 cycles
 SCF Done:  E(RB3LYP) =  -663.309645401     A.U. after   10 cycles
 SCF Done:  E(RB3LYP) =  -663.309649356     A.U. after    9 cycles
 SCF Done:  E(RB3LYP) =  -663.309652297     A.U. after    9 cycles
 SCF Done:  E(RB3LYP) =  -663.309654194     A.U. after    9 cycles
 SCF Done:  E(RB3LYP) =  -663.309655335     A.U. after    9 cycles
 SCF Done:  E(RB3LYP) =  -663.309655787     A.U. after    9 cycles
 SCF Done:  E(RB3LYP) =  -663.309655688     A.U. after    9 cycles
 Optimization completed.
    -- Stationary point found.
 Normal termination of Gaussian 09 at Mon Mar 20 12:57:46 2017.

 -----------------------------------------------------------------
 #P Geom=AllCheck Guess=TCheck SCRF=Check GenChk RB3LYP/MIDIx Freq
 -----------------------------------------------------------------

 Structure from the checkpoint file:  "/scratch/ekwan_da_ortho_endo-b3lyp_d3bj-midix-ts/Gau-24129.chk"
 -------------------
 Title Card Required
 -------------------
 Charge =  0 Multiplicity = 1

                         Standard orientation:
 ---------------------------------------------------------------------
 Center     Atomic      Atomic             Coordinates (Angstroms)
 Number     Number       Type             X           Y           Z
 ---------------------------------------------------------------------
      1          6           0        2.024377   -1.484683    0.646725
      2          1           0        2.367422   -1.689256    1.660426
      3          6           0        2.956891   -0.998942   -0.279110
      4          1           0        4.012898   -1.035121   -0.011835
      5          1           0        2.772253   -1.127921   -1.345716
      6          6           0        0.647546   -1.480177    0.434532
      7          1           0       -0.018172   -1.643549    1.271893
      8          6           0        0.083121   -1.073294   -0.763285
      9          1           0        0.645001   -1.091745   -1.689963
     10          7           0       -1.274121   -0.861477   -0.963413
     11          1           0       -1.552798   -0.534319   -1.891652
     12          6           0       -2.180125   -0.527820    0.042344
     13          8           0       -1.999334   -0.623085    1.249656
     14          8           0       -3.360921   -0.159653   -0.538159
     15          6           0        1.271199    1.219398   -0.787761
     16          1           0        1.069679    1.353128   -1.846576
     17          6           0        2.573053    0.992581   -0.324721
     18          1           0        3.398191    1.208410   -1.004749
     19          1           0        2.779431    1.210563    0.720667
     20          6           0        0.146766    1.505254    0.073840
     21          8           0       -0.987022    1.816001   -0.309383
     22          8           0        0.437001    1.347234    1.417155
     23          1           0       -3.946094    0.074391    0.230331
     24          1           0       -0.463727    1.347882    1.841520
 ---------------------------------------------------------------------

 SCF Done:  E(RB3LYP) =  -663.309655688     A.U. after    1 cycles

 The electronic state is 1-A.
 Alpha  occ. eigenvalues --  -19.07110 -19.03927 -19.01129 -18.98310 -14.29633
 Alpha  occ. eigenvalues --  -10.28392 -10.22383 -10.18399 -10.13552 -10.13372
 Alpha  occ. eigenvalues --  -10.12773 -10.11768 -10.11634  -1.10686  -1.06359
 Alpha  occ. eigenvalues --   -1.01508  -0.97703  -0.95448  -0.82593  -0.77668
 Alpha  occ. eigenvalues --   -0.73929  -0.67492  -0.64006  -0.60485  -0.57384
 Alpha  occ. eigenvalues --   -0.55361  -0.53277  -0.50348  -0.47679  -0.47091
 Alpha  occ. eigenvalues --   -0.46473  -0.45866  -0.44668  -0.44443  -0.42287
 Alpha  occ. eigenvalues --   -0.40782  -0.40478  -0.37999  -0.37592  -0.36675
 Alpha  occ. eigenvalues --   -0.35511  -0.34928  -0.32964  -0.30307  -0.28385
 Alpha  occ. eigenvalues --   -0.27145  -0.24788  -0.23406  -0.19995
 Alpha virt. eigenvalues --   -0.04667   0.00785   0.05291   0.07216   0.07574
 Alpha virt. eigenvalues --    0.08091   0.10458   0.11629   0.11823   0.13466
 Alpha virt. eigenvalues --    0.14396   0.15591   0.18178   0.18734   0.21040

 Mulliken charges:
               1
     1  C   -0.142821
     2  H    0.169215
     3  C   -0.346916
     4  H    0.174872
     5  H    0.181539
     6  C   -0.208835
     7  H    0.185923
     8  C    0.147702
     9  H    0.187552
    10  N   -0.758089
    11  H    0.331074
    12  C    1.072366
    13  O   -0.601849
    14  O   -0.627279
    15  C   -0.286291
    16  H    0.155473
    17  C   -0.297633
    18  H    0.182278
    19  H    0.190319
    20  C    0.800069
    21  O   -0.630660
    22  O   -0.629756
    23  H    0.391679
    24  H    0.360066
 Sum of Mulliken charges =   0.00000

 Dipole moment (field-independent basis, Debye):
    X=              0.7269    Y=             -1.4076    Z=             -1.6945  Tot=              2.3197
 Quadrupole moment (field-independent basis, Debye-Ang):
   XX=            -63.0690   YY=            -82.3016   ZZ=            -69.8369
   XY=              0.1121   XZ=             -2.0831   YZ=              2.8369

  Exact polarizability: 168.674  -5.061 104.301   1.257 -10.624  97.566
 Approx polarizability: 244.489  -8.327 171.177  15.973 -28.495 156.629

 ******    1 imaginary frequencies (negative Signs) ******

                      1                      2                      3
                      A                      A                      A
 Frequencies --   -420.0117                28.5333               100.9972
 Red. masses --      9.4113                 5.1116                 5.2920
 Frc consts  --      0.9782                 0.0025                 0.0318
 IR Inten    --     28.6014                 4.9463                 1.9918

                      4                      5                      6
                      A                      A                      A
 Frequencies --    109.0296               128.7467               159.0404
 Red. masses --      8.5097                 5.9030                 4.5472
 Frc consts  --      0.0596                 0.0576                 0.0678
 IR Inten    --      9.2613                 1.6240                 2.4159

                      7                      8                      9
                      A                      A                      A
 Frequencies --    164.4885               212.6309               253.9360
 Red. masses --      9.1373                 6.1718                 3.9844
 Frc consts  --      0.1457                 0.1644                 0.1514
 IR Inten    --      0.5767                 4.4049                 4.3530

                     10                     11                     12
                      A                      A                      A
 Frequencies --    286.6864               312.0459               357.8002
 Red. masses --      4.0207                 3.1142                 4.9902
 Frc consts  --      0.1947                 0.1787                 0.3764
 IR Inten    --      2.0877                 3.3639                 4.5880

                     13                     14                     15
                      A                      A                      A
 Frequencies --    390.0664               425.3094               469.0727
 Red. masses --      3.3723                 3.0374                 1.1468
 Frc consts  --      0.3023                 0.3237                 0.1487
 IR Inten    --     12.7545                31.6434               176.3710

                     16                     17                     18
                      A                      A                      A
 Frequencies --    478.2120               484.9479               525.1005
 Red. masses --      1.7356                 2.0419                 2.9802
 Frc consts  --      0.2339                 0.2829                 0.4842
 IR Inten    --     30.5213                43.5760                41.5411

                     19                     20                     21
                      A                      A                      A
 Frequencies --    555.2388               570.4196               583.9683
 Red. masses --      3.2210                 1.5258                 3.1628
 Frc consts  --      0.5851                 0.2925                 0.6355
 IR Inten    --     36.4654                43.3311                36.5747

                     22                     23                     24
                      A                      A                      A
 Frequencies --    626.1106               711.8120               719.0268
 Red. masses --      2.2412                 9.2386                 3.2148
 Frc consts  --      0.5177                 2.7580                 0.9793
 IR Inten    --     25.6440                59.8719                24.4488

                     25                     26                     27
                      A                      A                      A
 Frequencies --    770.5722               799.8425               819.7099
 Red. masses --      2.4640                 1.5581                 2.1212
 Frc consts  --      0.8620                 0.5873                 0.8397
 IR Inten    --     34.1898                23.1596                51.8503

                     28                     29                     30
                      A                      A                      A
 Frequencies --    851.8806               890.7579               924.7348
 Red. masses --      2.2053                 1.6291                 3.1495
 Frc consts  --      0.9429                 0.7616                 1.5868
 IR Inten    --      6.3765                16.9766                33.8599

                     31                     32                     33
                      A                      A                      A
 Frequencies --    944.2928               967.5651               995.4262
 Red. masses --      1.4130                 1.3105                 1.3558
 Frc consts  --      0.7423                 0.7229                 0.7915
 IR Inten    --     61.3259                47.7318                68.4842

                     34                     35                     36
                      A                      A                      A
 Frequencies --   1033.5860              1068.6659              1090.6104
 Red. masses --      1.2854                 1.6810                 1.6673
 Frc consts  --      0.8091                 1.1311                 1.1684
 IR Inten    --     17.8591                27.4213                63.1287

                     37                     38                     39
                      A                      A                      A
 Frequencies --   1113.8475              1148.0430              1164.0126
 Red. masses --      1.2986                 1.3289                 2.4758
 Frc consts  --      0.9493                 1.0319                 1.9765
 IR Inten    --     16.1296                16.7799               584.8620

                     40                     41                     42
                      A                      A                      A
 Frequencies --   1218.9420              1245.3495              1268.7560
 Red. masses --      1.5926                 1.8554                 1.7271
 Frc consts  --      1.3942                 1.6954                 1.6380
 IR Inten    --    199.4703                44.4950                14.0920

                     43                     44                     45
                      A                      A                      A
 Frequencies --   1310.2463              1331.9164              1379.1532
 Red. masses --      1.4529                 1.4566                 1.8769
 Frc consts  --      1.4695                 1.5225                 2.1034
 IR Inten    --     18.8316                55.2047                25.6605

                     46                     47                     48
                      A                      A                      A
 Frequencies --   1388.3265              1401.7487              1446.6934
 Red. masses --      1.7902                 1.6394                 2.1800
 Frc consts  --      2.0330                 1.8980                 2.6882
 IR Inten    --     17.7030                43.5981                32.5875

                     49                     50                     51
                      A                      A                      A
 Frequencies --   1522.0505              1536.5012              1551.8473
 Red. masses --      1.5065                 1.4106                 1.8069
 Frc consts  --      2.0563                 1.9621                 2.5637
 IR Inten    --     71.7637               109.0242               337.6335

                     52                     53                     54
                      A                      A                      A
 Frequencies --   1590.5887              1628.3020              1738.7338
 Red. masses --      2.2143                 2.7029                 7.2472
 Frc consts  --      3.3006                 4.2223                12.9088
 IR Inten    --     12.6867                19.4439               469.2815

                     55                     56                     57
                      A                      A                      A
 Frequencies --   1803.9449              3121.7195              3128.3111
 Red. masses --      7.7703                 1.0581                 1.0582
 Frc consts  --     14.8983                 6.0754                 6.1013
 IR Inten    --    243.5405                 6.6104                19.9397

                     58                     59                     60
                      A                      A                      A
 Frequencies --   3163.8150              3197.4294              3199.2905
 Red. masses --      1.0897                 1.0965                 1.1070
 Frc consts  --      6.4265                 6.6049                 6.6757
 IR Inten    --      7.9754                12.3347                 9.3713

                     61                     62                     63
                      A                      A                      A
 Frequencies --   3221.4780              3227.0530              3255.0904
 Red. masses --      1.1066                 1.0912                 1.0883
 Frc consts  --      6.7664                 6.6953                 6.7942
 IR Inten    --      5.1302                 6.0582                 0.8165

                     64                     65                     66
                      A                      A                      A
 Frequencies --   3478.2451              3509.7564              3539.7777
 Red. masses --      1.0766                 1.0637                 1.0642
 Frc consts  --      7.6741                 7.7199                 7.8562
 IR Inten    --     83.9036                61.6373               130.8963

 - Thermochemistry -
 -------------------
 Temperature   298.150 Kelvin.  Pressure   1.00000 Atm.
 Atom     1 has atomic number  6 and mass  12.00000

 Molecular mass:   185.06881 amu.
 Principal axes and moments of inertia in atomic units:
                           1         2         3
     Eigenvalues --  1339.013572824.975003296.98743
           X            0.99995  -0.00777  -0.00593
           Y            0.00773   0.99995  -0.00608
           Z            0.00598   0.00603   0.99996
 This molecule is an asymmetric top.
 Rotational symmetry number  1.
 Warning -- assumption of classical behavior for rotation
           may cause significant error
 Rotational temperatures (Kelvin)      0.06468     0.03066     0.02627
 Rotational constants (GHZ):           1.34781     0.63885     0.54739
    1 imaginary frequencies ignored.
 Zero-point vibrational energy     494307.9 (Joules/Mol)
                                  118.14243 (Kcal/Mol)
 Warning -- explicit consideration of  20 degrees of freedom as
           vibrations may cause significant error
 Vibrational temperatures:     41.05   145.31   156.87   185.24   228.82
          (Kelvin)            236.66   305.93   365.36   412.48   448.96
                              514.79   561.22   611.92   674.89   688.04
                              697.73   755.50   798.86   820.71   840.20
                              900.83  1024.14  1034.52  1108.68  1150.79
                             1179.38  1225.66  1281.60  1330.49  1358.63
                             1392.11  1432.19  1487.10  1537.57  1569.14
                             1602.58  1651.78  1674.75  1753.78  1791.78
                             1825.45  1885.15  1916.33  1984.29  1997.49
                             2016.80  2081.47  2189.89  2210.68  2232.76
                             2288.50  2342.76  2501.65  2595.47  4491.45
                             4500.94  4552.02  4600.38  4603.06  4634.98
                             4643.00  4683.34  5004.41  5049.75  5092.94

 Zero-point correction=                           0.188272 (Hartree/Particle)
 Thermal correction to Energy=                    0.200804
 Thermal correction to Enthalpy=                  0.201749
 Thermal correction to Gibbs Free Energy=         0.149487
 Sum of electronic and zero-point Energies=           -663.121384
 Sum of electronic and thermal Energies=              -663.108851
 Sum of electronic and thermal Enthalpies=            -663.107907
 Sum of electronic and thermal Free Energies=         -663.160169

                     E (Thermal)             CV                S
                      KCal/Mol        Cal/Mol-Kelvin    Cal/Mol-Kelvin
 Total                  126.007             47.915            109.994
 Electronic               0.000              0.000              0.000
 Translational            0.889              2.981             41.553
 Rotational               0.889              2.981             30.901
 Vibrational            124.229             41.953             37.541
 Vibration     1          0.593              1.984              5.929
 Vibration     2          0.604              1.948              3.435
 Vibration     3          0.606              1.942              3.286
 Vibration     4          0.611              1.924              2.965
 Vibration     5          0.621              1.892              2.561
 Vibration     6          0.623              1.886              2.498
 Vibration     7          0.644              1.822              2.021
 Vibration     8          0.665              1.756              1.703
 Vibration     9          0.684              1.698              1.493
 Vibration    10          0.700              1.651              1.351
 Vibration    11          0.733              1.559              1.132
 Vibration    12          0.758              1.491              1.000
 Vibration    13          0.787              1.415              0.874
 Vibration    14          0.826              1.319              0.740
 Vibration    15          0.835              1.298              0.715
 Vibration    16          0.841              1.283              0.697
 Vibration    17          0.880              1.194              0.598
 Vibration    18          0.911              1.128              0.533
 Vibration    19          0.927              1.095              0.503
 Vibration    20          0.941              1.066              0.478

 Optimization completed.
    -- Stationary point found.
 Normal termination of Gaussian 09 at Mon Mar 20 12:59:13 2017.
