 Gaussian 09, Revision D.01,
 Gaussian 09:  EM64L-G09RevD.01 24-Apr-2013

 ----------------------------------------------------------------------
 #p b3lyp empiricaldispersion=gd3bj midix scrf=(pcm,solvent=1,4-dioxane
 ) opt=modredundant freq=noraman
 ----------------------------------------------------------------------

 -------------------
 Title Card Required
 -------------------
 Symbolic Z-matrix:
 Charge =  0 Multiplicity = 1

 SCF Done:  E(RB3LYP) =  -663.298111445     A.U. after   14 cycles
 SCF Done:  E(RB3LYP) =  -663.300593530     A.U. after   13 cycles
 SCF Done:  E(RB3LYP) =  -663.305858803     A.U. after   12 cycles
 SCF Done:  E(RB3LYP) =  -663.304929011     A.U. after   12 cycles
 SCF Done:  E(RB3LYP) =  -663.307521070     A.U. after    9 cycles
 SCF Done:  E(RB3LYP) =  -663.308256818     A.U. after   12 cycles
 SCF Done:  E(RB3LYP) =  -663.308749120     A.U. after   11 cycles
 SCF Done:  E(RB3LYP) =  -663.309046372     A.U. after   11 cycles
 SCF Done:  E(RB3LYP) =  -663.309095727     A.U. after   10 cycles
 SCF Done:  E(RB3LYP) =  -663.309114708     A.U. after   10 cycles
 SCF Done:  E(RB3LYP) =  -663.309127803     A.U. after    9 cycles
 SCF Done:  E(RB3LYP) =  -663.309131853     A.U. after    9 cycles
 SCF Done:  E(RB3LYP) =  -663.309134729     A.U. after    8 cycles
 SCF Done:  E(RB3LYP) =  -663.309136615     A.U. after    9 cycles
 SCF Done:  E(RB3LYP) =  -663.309137665     A.U. after    9 cycles
 SCF Done:  E(RB3LYP) =  -663.309138539     A.U. after    8 cycles
 SCF Done:  E(RB3LYP) =  -663.309139332     A.U. after    8 cycles
 SCF Done:  E(RB3LYP) =  -663.309139976     A.U. after    8 cycles
 SCF Done:  E(RB3LYP) =  -663.309140221     A.U. after    8 cycles
 Optimization completed.
    -- Stationary point found.
 Normal termination of Gaussian 09 at Mon Mar 20 11:56:20 2017.

 -----------------------------------------------------------------
 #P Geom=AllCheck Guess=TCheck SCRF=Check GenChk RB3LYP/MIDIx Freq
 -----------------------------------------------------------------

 Structure from the checkpoint file:  "/scratch/ekwan_da_ortho_exo-b3lyp_d3bj-midix-freeze/Gau-13038.chk"
 -------------------
 Title Card Required
 -------------------
 Charge =  0 Multiplicity = 1

                         Standard orientation:
 ---------------------------------------------------------------------
 Center     Atomic      Atomic             Coordinates (Angstroms)
 Number     Number       Type             X           Y           Z
 ---------------------------------------------------------------------
      1          6           0       -1.204951    2.371177   -0.215235
      2          1           0       -1.284334    3.365971    0.223712
      3          6           0       -2.376865    1.647728   -0.411620
      4          1           0       -3.332260    2.152411   -0.273348
      5          1           0       -2.408371    0.813117   -1.111369
      6          6           0        0.086256    1.827956   -0.318264
      7          1           0        0.939505    2.376402    0.062244
      8          6           0        0.276404    0.525249   -0.728773
      9          1           0       -0.489636    0.026283   -1.311753
     10          7           0        1.440470   -0.231359   -0.665930
     11          1           0        1.251777   -1.250921   -0.654042
     12          6           0        2.586289    0.164403    0.011918
     13          8           0        2.874266    1.298619    0.366362
     14          8           0        3.392142   -0.929728    0.194380
     15          6           0       -1.227553   -0.536770    1.067744
     16          1           0       -0.376765   -0.387092    1.721815
     17          6           0       -2.369058    0.252434    1.157805
     18          1           0       -2.450396    0.949985    1.988262
     19          1           0       -3.313980   -0.150248    0.797545
     20          6           0       -1.118476   -1.665107    0.171533
     21          8           0       -0.153729   -2.433103    0.048202
     22          8           0       -2.206426   -1.770683   -0.683408
     23          1           0        4.193454   -0.565409    0.656705
     24          1           0       -1.974579   -2.554242   -1.253197
 ---------------------------------------------------------------------

 SCF Done:  E(RB3LYP) =  -663.309140221     A.U. after    1 cycles

 The electronic state is 1-A.
 Alpha  occ. eigenvalues --  -19.07146 -19.06499 -19.01302 -19.00500 -14.28794
 Alpha  occ. eigenvalues --  -10.28042 -10.24365 -10.18246 -10.13968 -10.13104
 Alpha  occ. eigenvalues --  -10.13053 -10.12080 -10.11886  -1.10639  -1.08589
 Alpha  occ. eigenvalues --   -1.01581  -0.99719  -0.95055  -0.82643  -0.78541
 Alpha  occ. eigenvalues --   -0.73813  -0.67362  -0.65137  -0.60391  -0.57272
 Alpha  occ. eigenvalues --   -0.56526  -0.53072  -0.50409  -0.48235  -0.47408
 Alpha  occ. eigenvalues --   -0.47179  -0.46002  -0.44892  -0.44877  -0.43131
 Alpha  occ. eigenvalues --   -0.42197  -0.40472  -0.38787  -0.38245  -0.37381
 Alpha  occ. eigenvalues --   -0.36196  -0.35899  -0.32415  -0.30467  -0.29890
 Alpha  occ. eigenvalues --   -0.27308  -0.26167  -0.24574  -0.20553
 Alpha virt. eigenvalues --   -0.05134  -0.00614   0.04997   0.07014   0.07639
 Alpha virt. eigenvalues --    0.07979   0.10436   0.11862   0.12569   0.12815
 Alpha virt. eigenvalues --    0.14064   0.16967   0.18406   0.18459   0.20213

 Mulliken charges:
               1
     1  C   -0.153995
     2  H    0.169353
     3  C   -0.349349
     4  H    0.172169
     5  H    0.186489
     6  C   -0.212865
     7  H    0.188281
     8  C    0.137324
     9  H    0.194188
    10  N   -0.781771
    11  H    0.334322
    12  C    1.050361
    13  O   -0.586333
    14  O   -0.622287
    15  C   -0.260224
    16  H    0.173295
    17  C   -0.291202
    18  H    0.180190
    19  H    0.196152
    20  C    0.752161
    21  O   -0.619859
    22  O   -0.613909
    23  H    0.389074
    24  H    0.368436
 Sum of Mulliken charges =   0.00000

 Dipole moment (field-independent basis, Debye):
    X=             -1.2500    Y=             -0.0698    Z=             -0.3170  Tot=              1.2915
 Quadrupole moment (field-independent basis, Debye-Ang):
   XX=            -66.0790   YY=            -78.7563   ZZ=            -73.3581
   XY=             -3.7463   XZ=              2.7310   YZ=              5.0304

  Exact polarizability: 161.845 -10.636 142.315  -2.530   1.318  75.638
 Approx polarizability: 229.256 -21.054 232.494 -10.444  -2.878 112.058

 ******    1 imaginary frequencies (negative Signs) ******

                      1                      2                      3
                      A                      A                      A
 Frequencies --   -333.9749                46.9264                67.3474
 Red. masses --      9.2025                 5.4664                10.0105
 Frc consts  --      0.6048                 0.0071                 0.0268
 IR Inten    --     58.5122                 0.8999                 1.9681

                      4                      5                      6
                      A                      A                      A
 Frequencies --     81.3946               105.4808               154.5124
 Red. masses --      7.9612                 6.4474                 5.7718
 Frc consts  --      0.0311                 0.0423                 0.0812
 IR Inten    --      2.5482                 1.2302                 0.5894

                      7                      8                      9
                      A                      A                      A
 Frequencies --    183.3896               217.1946               240.6960
 Red. masses --      6.1971                 6.4569                 3.9867
 Frc consts  --      0.1228                 0.1795                 0.1361
 IR Inten    --      7.3741                 8.7561                 0.6581

                     10                     11                     12
                      A                      A                      A
 Frequencies --    283.2242               308.6768               363.9450
 Red. masses --      4.0299                 3.1899                 5.0486
 Frc consts  --      0.1905                 0.1791                 0.3940
 IR Inten    --      7.3271                 0.2003                 8.5907

                     13                     14                     15
                      A                      A                      A
 Frequencies --    390.9497               432.1813               494.6175
 Red. masses --      4.2741                 3.0533                 2.7930
 Frc consts  --      0.3849                 0.3360                 0.4026
 IR Inten    --      3.2934                25.4976                14.8596

                     16                     17                     18
                      A                      A                      A
 Frequencies --    517.0120               524.5778               540.5806
 Red. masses --      1.2995                 2.5492                 4.4326
 Frc consts  --      0.2047                 0.4133                 0.7632
 IR Inten    --    105.7443               106.6914                37.4421

                     19                     20                     21
                      A                      A                      A
 Frequencies --    581.1249               605.8093               606.5222
 Red. masses --      2.6007                 2.3455                 1.3006
 Frc consts  --      0.5175                 0.5072                 0.2819
 IR Inten    --     20.9192                35.0116                41.1870

                     22                     23                     24
                      A                      A                      A
 Frequencies --    676.7613               719.8827               738.3614
 Red. masses --      1.6164                 2.3139                 8.9704
 Frc consts  --      0.4362                 0.7065                 2.8814
 IR Inten    --     90.1199                 9.2272                60.5040

                     25                     26                     27
                      A                      A                      A
 Frequencies --    790.5504               815.9830               835.8426
 Red. masses --      1.6379                 2.1689                 2.1806
 Frc consts  --      0.6031                 0.8508                 0.8976
 IR Inten    --     83.3582                15.3666                85.1503

                     28                     29                     30
                      A                      A                      A
 Frequencies --    853.7844               920.1920               949.9512
 Red. masses --      2.5478                 1.5015                 1.6367
 Frc consts  --      1.0943                 0.7491                 0.8702
 IR Inten    --      9.5718                96.4944                22.7065

                     31                     32                     33
                      A                      A                      A
 Frequencies --    952.1226               984.4561              1016.7758
 Red. masses --      2.0105                 1.2932                 1.3261
 Frc consts  --      1.0739                 0.7384                 0.8077
 IR Inten    --     13.7517                61.6644                95.2492

                     34                     35                     36
                      A                      A                      A
 Frequencies --   1059.3196              1067.5650              1075.1575
 Red. masses --      1.2469                 1.7949                 1.3450
 Frc consts  --      0.8244                 1.2053                 0.9160
 IR Inten    --     47.7597                11.2680               111.3178

                     37                     38                     39
                      A                      A                      A
 Frequencies --   1108.0080              1123.9455              1167.9485
 Red. masses --      1.4675                 1.3069                 2.3606
 Frc consts  --      1.0615                 0.9727                 1.8972
 IR Inten    --     25.5168                18.8924               603.5429

                     40                     41                     42
                      A                      A                      A
 Frequencies --   1200.9626              1247.3026              1278.9294
 Red. masses --      1.5896                 1.8219                 1.6708
 Frc consts  --      1.3508                 1.6700                 1.6102
 IR Inten    --    225.3256                43.0675                11.6290

                     43                     44                     45
                      A                      A                      A
 Frequencies --   1315.2876              1345.9942              1372.9863
 Red. masses --      1.4750                 1.6810                 2.0520
 Frc consts  --      1.5034                 1.7943                 2.2791
 IR Inten    --      2.8939                85.3601                63.7124

                     46                     47                     48
                      A                      A                      A
 Frequencies --   1384.3161              1401.3581              1449.3835
 Red. masses --      1.8587                 1.5475                 1.9471
 Frc consts  --      2.0987                 1.7905                 2.4099
 IR Inten    --     44.5098                21.8343                50.0279

                     49                     50                     51
                      A                      A                      A
 Frequencies --   1519.0281              1549.3223              1574.3189
 Red. masses --      1.6152                 1.4545                 1.8585
 Frc consts  --      2.1958                 2.0570                 2.7139
 IR Inten    --     17.5098                71.5112               714.3212

                     52                     53                     54
                      A                      A                      A
 Frequencies --   1605.2416              1634.2490              1732.6834
 Red. masses --      1.9025                 2.7122                 5.9642
 Frc consts  --      2.8884                 4.2678                10.5497
 IR Inten    --     14.7344                13.9768               417.4248

                     55                     56                     57
                      A                      A                      A
 Frequencies --   1815.8451              3133.1529              3147.7033
 Red. masses --      7.9155                 1.0567                 1.0564
 Frc consts  --     15.3774                 6.1116                 6.1668
 IR Inten    --    286.0706                 6.6069                 7.5178

                     58                     59                     60
                      A                      A                      A
 Frequencies --   3158.6816              3209.9268              3219.0724
 Red. masses --      1.0889                 1.1133                 1.0906
 Frc consts  --      6.4012                 6.7583                 6.6583
 IR Inten    --     14.9617                12.6807                 5.1479

                     61                     62                     63
                      A                      A                      A
 Frequencies --   3221.5552              3239.6117              3245.6909
 Red. masses --      1.1025                 1.1015                 1.0881
 Frc consts  --      6.7417                 6.8112                 6.7535
 IR Inten    --      5.6858                 3.8966                 0.3211

                     64                     65                     66
                      A                      A                      A
 Frequencies --   3269.2960              3502.4245              3533.3945
 Red. masses --      1.0777                 1.0640                 1.0642
 Frc consts  --      6.7866                 7.6898                 7.8279
 IR Inten    --    116.8675                80.3363               121.1062

 - Thermochemistry -
 -------------------
 Temperature   298.150 Kelvin.  Pressure   1.00000 Atm.
 Atom     1 has atomic number  6 and mass  12.00000

 Molecular mass:   185.06881 amu.
 Principal axes and moments of inertia in atomic units:
                           1         2         3
     Eigenvalues --  1675.101442930.354714106.34139
           X            0.99942  -0.03396   0.00011
           Y            0.03395   0.99935   0.01249
           Z           -0.00053  -0.01248   0.99992
 This molecule is an asymmetric top.
 Rotational symmetry number  1.
 Warning -- assumption of classical behavior for rotation
           may cause significant error
 Rotational temperatures (Kelvin)      0.05171     0.02956     0.02109
 Rotational constants (GHZ):           1.07739     0.61588     0.43950
    1 imaginary frequencies ignored.
 Zero-point vibrational energy     495914.8 (Joules/Mol)
                                  118.52649 (Kcal/Mol)
 Warning -- explicit consideration of  20 degrees of freedom as
           vibrations may cause significant error
 Vibrational temperatures:     67.52    96.90   117.11   151.76   222.31
          (Kelvin)            263.86   312.49   346.31   407.50   444.12
                              523.64   562.49   621.81   711.64   743.86
                              754.75   777.77   836.11   871.62   872.65
                              973.71  1035.75  1062.34  1137.42  1174.02
                             1202.59  1228.40  1323.95  1366.77  1369.89
                             1416.41  1462.91  1524.12  1535.99  1546.91
                             1594.17  1617.10  1680.42  1727.92  1794.59
                             1840.09  1892.40  1936.58  1975.42  1991.72
                             2016.24  2085.34  2185.54  2229.13  2265.09
                             2309.58  2351.32  2492.94  2612.59  4507.90
                             4528.84  4544.63  4618.36  4631.52  4635.09
                             4661.07  4669.82  4703.78  5039.20  5083.76

 Zero-point correction=                           0.188884 (Hartree/Particle)
 Thermal correction to Energy=                    0.201320
 Thermal correction to Enthalpy=                  0.202264
 Thermal correction to Gibbs Free Energy=         0.149768
 Sum of electronic and zero-point Energies=           -663.120256
 Sum of electronic and thermal Energies=              -663.107820
 Sum of electronic and thermal Enthalpies=            -663.106876
 Sum of electronic and thermal Free Energies=         -663.159372

                     E (Thermal)             CV                S
                      KCal/Mol        Cal/Mol-Kelvin    Cal/Mol-Kelvin
 Total                  126.330             47.139            110.487
 Electronic               0.000              0.000              0.000
 Translational            0.889              2.981             41.553
 Rotational               0.889              2.981             31.378
 Vibrational            124.553             41.178             37.556
 Vibration     1          0.595              1.979              4.943
 Vibration     2          0.598              1.970              4.229
 Vibration     3          0.600              1.962              3.857
 Vibration     4          0.605              1.945              3.350
 Vibration     5          0.620              1.898              2.616
 Vibration     6          0.631              1.862              2.294
 Vibration     7          0.646              1.815              1.982
 Vibration     8          0.658              1.778              1.798
 Vibration     9          0.682              1.705              1.514
 Vibration    10          0.698              1.657              1.369
 Vibration    11          0.737              1.546              1.105
 Vibration    12          0.759              1.490              0.997
 Vibration    13          0.793              1.400              0.852
 Vibration    14          0.850              1.262              0.672
 Vibration    15          0.872              1.212              0.617
 Vibration    16          0.880              1.196              0.599
 Vibration    17          0.896              1.160              0.564
 Vibration    18          0.938              1.072              0.483
 Vibration    19          0.964              1.019              0.440
 Vibration    20          0.965              1.018              0.439

 Optimization completed.
    -- Stationary point found.
 Normal termination of Gaussian 09 at Mon Mar 20 11:58:30 2017.
