 Gaussian 09, Revision D.01,
 Gaussian 09:  EM64L-G09RevD.01 24-Apr-2013

 ----------------------------------------------------------------------
 #p b3lyp empiricaldispersion=gd3bj cc-pVTZ scrf=(pcm,solvent=1,4-dioxa
 ne)
 ----------------------------------------------------------------------

 -------------------
 Title Card Required
 -------------------
 Symbolic Z-matrix:
 Charge =  0 Multiplicity = 1

                         Standard orientation:
 ---------------------------------------------------------------------
 Center     Atomic      Atomic             Coordinates (Angstroms)
 Number     Number       Type             X           Y           Z
 ---------------------------------------------------------------------
      1          6           0        2.826358   -1.195728    1.064649
      2          1           0        3.220329   -0.894227    2.039484
      3          6           0        3.691128   -1.157593   -0.037492
      4          1           0        4.760781   -1.037094    0.154336
      5          1           0        3.472412   -1.779790   -0.908883
      6          6           0        1.435803   -1.334158    0.963954
      7          1           0        0.815380   -1.138747    1.835096
      8          6           0        0.812781   -1.521118   -0.260807
      9          1           0        1.367817   -1.908508   -1.111064
     10          7           0       -0.546082   -1.475332   -0.496218
     11          1           0       -0.843465   -1.583771   -1.459152
     12          6           0       -1.489751   -0.859974    0.309748
     13          8           0       -1.326735   -0.521097    1.466393
     14          8           0       -2.639345   -0.742473   -0.380514
     15          6           0        1.873541    0.577928   -1.391584
     16          1           0        1.566856    0.176743   -2.358211
     17          6           0        3.220066    0.565458   -1.002631
     18          1           0        3.967746    0.400335   -1.782694
     19          1           0        3.521655    1.261091   -0.219177
     20          6           0        0.822163    1.277586   -0.677678
     21          8           0       -0.344490    1.364375   -1.053161
     22          8           0        1.257244    1.836884    0.487754
     23          6           0        0.238818    2.445465    1.291249
     24          1           0        0.766583    2.912106    2.132745
     25          1           0       -0.313075    3.204432    0.716669
     26          1           0       -0.466680    1.682886    1.653399
     27          6           0       -3.674131    0.025549    0.275505
     28          1           0       -3.873391   -0.414180    1.264611
     29          1           0       -3.295496    1.048887    0.424348
     30          6           0       -4.891172   -0.003687   -0.622853
     31          1           0       -5.246983   -1.035333   -0.770067
     32          1           0       -5.704206    0.581848   -0.166378
     33          1           0       -4.660706    0.430765   -1.607663
 ---------------------------------------------------------------------

 SCF Done:  E(RB3LYP) =  -785.363240922     A.U. after   13 cycles

 The electronic state is 1-A.
 Alpha  occ. eigenvalues --  -19.17586 -19.15499 -19.11461 -19.09159 -14.37434
 Alpha  occ. eigenvalues --  -10.33425 -10.28217 -10.24172 -10.23417 -10.21098
 Alpha  occ. eigenvalues --  -10.19290 -10.19016 -10.18740 -10.17689 -10.17562
 Alpha  occ. eigenvalues --  -10.17421  -1.11776  -1.08214  -1.02629  -0.99322
 Alpha  occ. eigenvalues --   -0.96000  -0.82271  -0.78276  -0.77524  -0.73298
 Alpha  occ. eigenvalues --   -0.70330  -0.67434  -0.62908  -0.62144  -0.59852
 Alpha  occ. eigenvalues --   -0.57001  -0.54697  -0.54249  -0.51337  -0.50418
 Alpha  occ. eigenvalues --   -0.49284  -0.47568  -0.46947  -0.46464  -0.45048
 Alpha  occ. eigenvalues --   -0.44914  -0.44199  -0.42379  -0.41597  -0.40864
 Alpha  occ. eigenvalues --   -0.39775  -0.39604  -0.38442  -0.37796  -0.37229
 Alpha  occ. eigenvalues --   -0.36265  -0.35934  -0.35275  -0.34497  -0.33061
 Alpha  occ. eigenvalues --   -0.31024  -0.29316  -0.28937  -0.26815  -0.25024
 Alpha  occ. eigenvalues --   -0.20905
 Alpha virt. eigenvalues --   -0.06337  -0.00807   0.02533   0.03933   0.04089
 Alpha virt. eigenvalues --    0.04422   0.05825   0.06526   0.07086   0.08255
 Alpha virt. eigenvalues --    0.08703   0.09118   0.09323   0.10354   0.10873

 Mulliken charges:
               1
     1  C   -0.080167
     2  H    0.119452
     3  C   -0.247541
     4  H    0.119804
     5  H    0.118374
     6  C   -0.122023
     7  H    0.134989
     8  C   -0.051424
     9  H    0.142002
    10  N   -0.082071
    11  H    0.155445
    12  C    0.393172
    13  O   -0.380810
    14  O   -0.265323
    15  C   -0.178753
    16  H    0.123922
    17  C   -0.205074
    18  H    0.128630
    19  H    0.130717
    20  C    0.338318
    21  O   -0.427338
    22  O   -0.259916
    23  C   -0.118846
    24  H    0.100013
    25  H    0.086798
    26  H    0.098278
    27  C    0.030210
    28  H    0.090288
    29  H    0.095012
    30  C   -0.279819
    31  H    0.095256
    32  H    0.095458
    33  H    0.102967
 Sum of Mulliken charges =   0.00000

 Dipole moment (field-independent basis, Debye):
    X=              0.7105    Y=             -1.6480    Z=             -1.0482  Tot=              2.0783
 Quadrupole moment (field-independent basis, Debye-Ang):
   XX=            -79.6108   YY=            -96.5682   ZZ=            -95.5168
   XY=             -1.8297   XZ=             -1.7127   YZ=              9.1684

 Normal termination of Gaussian 09 at Mon Mar 20 19:17:05 2017.
