 Gaussian 09, Revision D.01,
 Gaussian 09:  EM64L-G09RevD.01 24-Apr-2013

 ----------------------------------------------------------------------
 #p b3lyp empiricaldispersion=gd3bj 6-31g* scrf=(pcm,solvent=1,4-dioxan
 e) opt=(ts,calcfc,maxstep=5,noeigentest) freq=noraman
 ----------------------------------------------------------------------

 -------------------
 Title Card Required
 -------------------
 Symbolic Z-matrix:
 Charge =  0 Multiplicity = 1

 SCF Done:  E(RB3LYP) =  -745.723998088     A.U. after   14 cycles
 SCF Done:  E(RB3LYP) =  -745.728867426     A.U. after   10 cycles
 SCF Done:  E(RB3LYP) =  -745.732620453     A.U. after   10 cycles
 SCF Done:  E(RB3LYP) =  -745.735393249     A.U. after   10 cycles
 SCF Done:  E(RB3LYP) =  -745.737238420     A.U. after   10 cycles
 SCF Done:  E(RB3LYP) =  -745.738217002     A.U. after   10 cycles
 SCF Done:  E(RB3LYP) =  -745.738418044     A.U. after   10 cycles
 SCF Done:  E(RB3LYP) =  -745.738421551     A.U. after    8 cycles
 SCF Done:  E(RB3LYP) =  -745.738421666     A.U. after    7 cycles
 SCF Done:  E(RB3LYP) =  -745.738421708     A.U. after    6 cycles
 SCF Done:  E(RB3LYP) =  -745.738421715     A.U. after    6 cycles
 SCF Done:  E(RB3LYP) =  -745.738421722     A.U. after    7 cycles
 Optimization completed.
    -- Stationary point found.
 Normal termination of Gaussian 09 at Mon Mar 20 14:04:24 2017.

 --------------------------------------------------------------------
 #P Geom=AllCheck Guess=TCheck SCRF=Check GenChk RB3LYP/6-31G(d) Freq
 --------------------------------------------------------------------

 Structure from the checkpoint file:  "/scratch/ekwan_da_ortho_exo_full-b3lyp_d3bj-631gd-ts/Gau-3523.chk"
 -------------------
 Title Card Required
 -------------------
 Charge =  0 Multiplicity = 1

                         Standard orientation:
 ---------------------------------------------------------------------
 Center     Atomic      Atomic             Coordinates (Angstroms)
 Number     Number       Type             X           Y           Z
 ---------------------------------------------------------------------
      1          6           0       -1.050497    2.784500   -0.353566
      2          1           0       -0.968826    3.815346   -0.014462
      3          6           0       -2.321055    2.200749   -0.368874
      4          1           0       -3.182568    2.850377   -0.234404
      5          1           0       -2.519138    1.347311   -1.011738
      6          6           0        0.149838    2.070070   -0.487023
      7          1           0        1.087212    2.548803   -0.236352
      8          6           0        0.137269    0.711995   -0.745791
      9          1           0       -0.729092    0.267321   -1.214208
     10          7           0        1.203533   -0.168406   -0.701576
     11          1           0        0.935610   -1.150110   -0.659472
     12          6           0        2.464543    0.114381   -0.214685
     13          8           0        2.915554    1.219860    0.018707
     14          8           0        3.144408   -1.043287   -0.067264
     15          6           0       -1.358724    0.047189    1.246604
     16          1           0       -0.443724    0.161619    1.813274
     17          6           0       -2.371255    1.011064    1.302308
     18          1           0       -2.287295    1.785116    2.058419
     19          1           0       -3.388475    0.696565    1.090351
     20          6           0       -1.484465   -1.211648    0.546409
     21          8           0       -0.624335   -2.091991    0.489790
     22          8           0       -2.656897   -1.316152   -0.149955
     23          6           0       -2.821243   -2.527920   -0.896274
     24          1           0       -2.797469   -3.397461   -0.234186
     25          1           0       -3.794861   -2.444594   -1.380349
     26          1           0       -2.031567   -2.634612   -1.645428
     27          6           0        4.489582   -0.897651    0.413589
     28          1           0        4.494661   -0.432444    1.402448
     29          1           0        4.887699   -1.910615    0.465877
     30          1           0        5.079294   -0.287598   -0.275133
 ---------------------------------------------------------------------

 SCF Done:  E(RB3LYP) =  -745.738421722     A.U. after    1 cycles

 The electronic state is 1-A.
 Alpha  occ. eigenvalues --  -19.19652 -19.18325 -19.13554 -19.12090 -14.38293
 Alpha  occ. eigenvalues --  -10.34504 -10.30117 -10.24834 -10.24106 -10.23467
 Alpha  occ. eigenvalues --  -10.20147 -10.19703 -10.19519 -10.18557 -10.18288
 Alpha  occ. eigenvalues --   -1.11438  -1.08752  -1.02137  -0.99628  -0.95217
 Alpha  occ. eigenvalues --   -0.81720  -0.77853  -0.75041  -0.71508  -0.70270
 Alpha  occ. eigenvalues --   -0.65137  -0.62603  -0.59598  -0.56350  -0.55141
 Alpha  occ. eigenvalues --   -0.53658  -0.51106  -0.49316  -0.48901  -0.47347
 Alpha  occ. eigenvalues --   -0.47187  -0.46308  -0.44614  -0.44479  -0.42983
 Alpha  occ. eigenvalues --   -0.42385  -0.42035  -0.41082  -0.39447  -0.38048
 Alpha  occ. eigenvalues --   -0.37106  -0.36717  -0.35817  -0.35318  -0.34948
 Alpha  occ. eigenvalues --   -0.32082  -0.30589  -0.29465  -0.28350  -0.26541
 Alpha  occ. eigenvalues --   -0.24428  -0.20156
 Alpha virt. eigenvalues --   -0.05537  -0.00122   0.04719   0.07267   0.08111
 Alpha virt. eigenvalues --    0.10498   0.11123   0.11822   0.12466   0.13135
 Alpha virt. eigenvalues --    0.13952   0.14071   0.15363   0.15862   0.16410

 Mulliken charges:
               1
     1  C   -0.076470
     2  H    0.142780
     3  C   -0.365356
     4  H    0.154840
     5  H    0.175885
     6  C   -0.140485
     7  H    0.179294
     8  C    0.026072
     9  H    0.185160
    10  N   -0.626852
    11  H    0.376950
    12  C    0.800670
    13  O   -0.511271
    14  O   -0.470902
    15  C   -0.169011
    16  H    0.153127
    17  C   -0.326956
    18  H    0.164711
    19  H    0.182222
    20  C    0.599731
    21  O   -0.564520
    22  O   -0.477302
    23  C   -0.215675
    24  H    0.170068
    25  H    0.164396
    26  H    0.159781
    27  C   -0.216369
    28  H    0.175179
    29  H    0.175855
    30  H    0.174450
 Sum of Mulliken charges =   0.00000

 Dipole moment (field-independent basis, Debye):
    X=             -1.2356    Y=             -0.0489    Z=             -0.8060  Tot=              1.4761
 Quadrupole moment (field-independent basis, Debye-Ang):
   XX=            -74.3063   YY=            -87.9558   ZZ=            -86.9894
   XY=             -6.2274   XZ=              3.7235   YZ=              5.7102

  Exact polarizability: 197.947  -9.812 179.901  -7.370  -4.411 100.865
 Approx polarizability: 256.268 -15.164 272.569 -22.230 -18.665 151.562

 ******    1 imaginary frequencies (negative Signs) ******

                      1                      2                      3
                      A                      A                      A
 Frequencies --   -405.3906                38.6530                47.2131
 Red. masses --      9.4094                 4.3694                 5.2451
 Frc consts  --      0.9111                 0.0038                 0.0069
 IR Inten    --     65.9873                 0.4127                 1.8925

                      4                      5                      6
                      A                      A                      A
 Frequencies --     57.4675                68.6417               107.4205
 Red. masses --      5.2077                 4.2623                 1.9563
 Frc consts  --      0.0101                 0.0118                 0.0133
 IR Inten    --      4.5563                 2.5806                 0.5612

                      7                      8                      9
                      A                      A                      A
 Frequencies --    117.6323               135.6063               144.5331
 Red. masses --      1.5043                 2.4263                 2.1653
 Frc consts  --      0.0123                 0.0263                 0.0267
 IR Inten    --      1.0674                 2.4720                 1.7271

                     10                     11                     12
                      A                      A                      A
 Frequencies --    158.1042               174.6253               199.6971
 Red. masses --      2.1281                 5.0904                 5.1822
 Frc consts  --      0.0313                 0.0915                 0.1218
 IR Inten    --      1.2254                 3.3055                23.7096

                     13                     14                     15
                      A                      A                      A
 Frequencies --    213.0423               252.8591               274.9819
 Red. masses --      3.5726                 2.9068                 3.8214
 Frc consts  --      0.0955                 0.1095                 0.1702
 IR Inten    --      6.4128                 3.1312                 3.0702

                     16                     17                     18
                      A                      A                      A
 Frequencies --    298.1185               347.0967               375.6319
 Red. masses --      4.5809                 3.6503                 4.6450
 Frc consts  --      0.2399                 0.2591                 0.3862
 IR Inten    --     20.0517                15.1740                 3.1302

                     19                     20                     21
                      A                      A                      A
 Frequencies --    389.3297               432.8845               478.5350
 Red. masses --      4.4925                 3.2358                 2.7466
 Frc consts  --      0.4012                 0.3572                 0.3706
 IR Inten    --     11.5454                21.4963                16.2333

                     22                     23                     24
                      A                      A                      A
 Frequencies --    529.9418               556.3148               629.2901
 Red. masses --      3.0417                 3.5626                 1.6271
 Frc consts  --      0.5033                 0.6496                 0.3796
 IR Inten    --      1.9461                 6.8749               132.9856

                     25                     26                     27
                      A                      A                      A
 Frequencies --    641.3154               661.7758               721.8835
 Red. masses --      3.4075                 2.5974                 1.9894
 Frc consts  --      0.8257                 0.6702                 0.6108
 IR Inten    --      2.3691                35.3834                 4.6684

                     28                     29                     30
                      A                      A                      A
 Frequencies --    759.1494               770.9888               793.2586
 Red. masses --      7.2300                 2.1957                 2.0626
 Frc consts  --      2.4549                 0.7690                 0.7647
 IR Inten    --     15.5222               101.8013                26.3141

                     31                     32                     33
                      A                      A                      A
 Frequencies --    808.1980               850.9773               888.1501
 Red. masses --      2.2456                 4.1177                 1.2900
 Frc consts  --      0.8642                 1.7569                 0.5995
 IR Inten    --     47.6116                26.7691                48.7639

                     34                     35                     36
                      A                      A                      A
 Frequencies --    902.4975               947.0613               953.8464
 Red. masses --      1.5446                 1.3359                 3.4134
 Frc consts  --      0.7412                 0.7059                 1.8298
 IR Inten    --     14.4025                49.0144                10.7050

                     37                     38                     39
                      A                      A                      A
 Frequencies --    973.3576              1021.6099              1044.8793
 Red. masses --      1.4098                 1.1654                 2.3073
 Frc consts  --      0.7869                 0.7166                 1.4842
 IR Inten    --     60.6495                 3.8850                31.5251

                     40                     41                     42
                      A                      A                      A
 Frequencies --   1050.3496              1060.3573              1100.8793
 Red. masses --      2.1032                 1.5668                 1.4406
 Frc consts  --      1.3671                 1.0379                 1.0286
 IR Inten    --     45.8236                 5.6951                40.3820

                     43                     44                     45
                      A                      A                      A
 Frequencies --   1113.6744              1119.8990              1184.8126
 Red. masses --      2.3389                 1.7847                 1.2719
 Frc consts  --      1.7091                 1.3188                 1.0520
 IR Inten    --    155.4497                54.6174                 1.1021

                     46                     47                     48
                      A                      A                      A
 Frequencies --   1188.0475              1213.8285              1219.3278
 Red. masses --      1.2655                 1.4795                 1.4650
 Frc consts  --      1.0524                 1.2844                 1.2833
 IR Inten    --      0.8089                70.6192                39.7262

                     49                     50                     51
                      A                      A                      A
 Frequencies --   1246.9730              1254.3349              1266.3229
 Red. masses --      1.7943                 1.8601                 3.7865
 Frc consts  --      1.6438                 1.7243                 3.5775
 IR Inten    --    110.8983               201.4285               687.7148

                     52                     53                     54
                      A                      A                      A
 Frequencies --   1294.0450              1296.9286              1345.4396
 Red. masses --      3.1447                 1.4154                 1.5211
 Frc consts  --      3.1026                 1.4027                 1.6223
 IR Inten    --    427.2088                49.6461               111.7545

                     55                     56                     57
                      A                      A                      A
 Frequencies --   1389.9555              1431.7179              1490.8842
 Red. masses --      1.5370                 1.6651                 1.1900
 Frc consts  --      1.7495                 2.0109                 1.5584
 IR Inten    --     11.5722                69.4206                 4.7599

                     58                     59                     60
                      A                      A                      A
 Frequencies --   1493.6676              1502.7712              1509.4400
 Red. masses --      1.2186                 1.5206                 1.0493
 Frc consts  --      1.6019                 2.0232                 1.4086
 IR Inten    --     39.8898                18.6094                 4.8312

                     61                     62                     63
                      A                      A                      A
 Frequencies --   1510.1723              1521.9452              1523.4496
 Red. masses --      1.0484                 1.0530                 1.0542
 Frc consts  --      1.4087                 1.4371                 1.4415
 IR Inten    --      8.1283                43.7890                 7.1732

                     64                     65                     66
                      A                      A                      A
 Frequencies --   1537.1736              1577.7788              1598.5647
 Red. masses --      1.5513                 1.9813                 2.4659
 Frc consts  --      2.1596                 2.9059                 3.7126
 IR Inten    --     32.5719               850.7997                 7.2508

                     67                     68                     69
                      A                      A                      A
 Frequencies --   1636.5519              1722.0807              1813.8476
 Red. masses --      2.6888                 8.7160                 9.2042
 Frc consts  --      4.2429                15.2291                17.8417
 IR Inten    --     13.3157               486.1673               295.5172

                     70                     71                     72
                      A                      A                      A
 Frequencies --   3070.9718              3079.1639              3142.5549
 Red. masses --      1.0301                 1.0299                 1.1068
 Frc consts  --      5.7235                 5.7531                 6.4401
 IR Inten    --     49.0687                44.7002                31.0937

                     73                     74                     75
                      A                      A                      A
 Frequencies --   3145.4675              3154.8018              3162.8241
 Red. masses --      1.0574                 1.1081                 1.0567
 Frc consts  --      6.1640                 6.4978                 6.2281
 IR Inten    --      7.2114                23.8961                10.7280

                     76                     77                     78
                      A                      A                      A
 Frequencies --   3173.6356              3176.9202              3190.1140
 Red. masses --      1.0899                 1.1065                 1.1067
 Frc consts  --      6.4676                 6.5798                 6.6355
 IR Inten    --     15.8913                21.9288                17.6008

                     79                     80                     81
                      A                      A                      A
 Frequencies --   3219.9410              3235.8655              3250.2026
 Red. masses --      1.1142                 1.1011                 1.1038
 Frc consts  --      6.8063                 6.7931                 6.8701
 IR Inten    --     17.4378                 4.5850                 4.2882

                     82                     83                     84
                      A                      A                      A
 Frequencies --   3250.3595              3258.3801              3514.2204
 Red. masses --      1.0939                 1.0868                 1.0772
 Frc consts  --      6.8094                 6.7981                 7.8381
 IR Inten    --      7.2913                 1.3498                75.1778

 - Thermochemistry -
 -------------------
 Temperature   298.150 Kelvin.  Pressure   1.00000 Atm.
 Atom     1 has atomic number  6 and mass  12.00000

 Molecular mass:   213.10011 amu.
 Principal axes and moments of inertia in atomic units:
                           1         2         3
     Eigenvalues --  2237.617464534.361006077.94197
           X            0.99984  -0.01546   0.00952
           Y            0.01525   0.99965   0.02172
           Z           -0.00986  -0.02157   0.99972
 This molecule is an asymmetric top.
 Rotational symmetry number  1.
 Warning -- assumption of classical behavior for rotation
           may cause significant error
 Rotational temperatures (Kelvin)      0.03871     0.01910     0.01425
 Rotational constants (GHZ):           0.80655     0.39801     0.29693
    1 imaginary frequencies ignored.
 Zero-point vibrational energy     646026.6 (Joules/Mol)
                                  154.40406 (Kcal/Mol)
 Warning -- explicit consideration of  22 degrees of freedom as
           vibrations may cause significant error
 Vibrational temperatures:     55.61    67.93    82.68    98.76   154.55
          (Kelvin)            169.25   195.11   207.95   227.48   251.25
                              287.32   306.52   363.81   395.64   428.93
                              499.39   540.45   560.16   622.82   688.50
                              762.47   800.41   905.41   922.71   952.15
                             1038.63  1092.25  1109.28  1141.32  1162.82
                             1224.37  1277.85  1298.49  1362.61  1372.37
                             1400.44  1469.87  1503.35  1511.22  1525.62
                             1583.92  1602.33  1611.28  1704.68  1709.33
                             1746.43  1754.34  1794.11  1804.71  1821.95
                             1861.84  1865.99  1935.79  1999.83  2059.92
                             2145.05  2149.05  2162.15  2171.74  2172.80
                             2189.74  2191.90  2211.65  2270.07  2299.98
                             2354.63  2477.69  2609.72  4418.44  4430.22
                             4521.43  4525.62  4539.05  4550.59  4566.15
                             4570.87  4589.86  4632.77  4655.68  4676.31
                             4676.54  4688.08  5056.17

 Zero-point correction=                           0.246059 (Hartree/Particle)
 Thermal correction to Energy=                    0.262121
 Thermal correction to Enthalpy=                  0.263066
 Thermal correction to Gibbs Free Energy=         0.201614
 Sum of electronic and zero-point Energies=           -745.492363
 Sum of electronic and thermal Energies=              -745.476300
 Sum of electronic and thermal Enthalpies=            -745.475356
 Sum of electronic and thermal Free Energies=         -745.536808

                     E (Thermal)             CV                S
                      KCal/Mol        Cal/Mol-Kelvin    Cal/Mol-Kelvin
 Total                  164.484             57.834            129.336
 Electronic               0.000              0.000              0.000
 Translational            0.889              2.981             41.973
 Rotational               0.889              2.981             32.489
 Vibrational            162.706             51.872             54.874
 Vibration     1          0.594              1.981              5.327
 Vibration     2          0.595              1.979              4.931
 Vibration     3          0.596              1.975              4.542
 Vibration     4          0.598              1.969              4.192
 Vibration     5          0.606              1.943              3.315
 Vibration     6          0.608              1.935              3.139
 Vibration     7          0.613              1.918              2.865
 Vibration     8          0.616              1.909              2.743
 Vibration     9          0.621              1.894              2.572
 Vibration    10          0.627              1.874              2.385
 Vibration    11          0.638              1.840              2.136
 Vibration    12          0.644              1.821              2.017
 Vibration    13          0.664              1.758              1.711
 Vibration    14          0.677              1.720              1.565
 Vibration    15          0.691              1.677              1.427
 Vibration    16          0.725              1.581              1.179
 Vibration    17          0.746              1.522              1.057
 Vibration    18          0.757              1.493              1.003
 Vibration    19          0.794              1.399              0.849
 Vibration    20          0.835              1.298              0.714
 Vibration    21          0.885              1.184              0.587
 Vibration    22          0.912              1.126              0.531

 Normal termination of Gaussian 09 at Mon Mar 20 14:11:14 2017.
