 Gaussian 09, Revision D.01,
 Gaussian 09:  EM64L-G09RevD.01 24-Apr-2013

 ----------------------------------------------------------------------
 #p b3lyp empiricaldispersion=gd3bj cc-pVQZ scrf=(pcm,solvent=1,4-dioxa
 ne)
 ----------------------------------------------------------------------

 -------------------
 Title Card Required
 -------------------
 Symbolic Z-matrix:
 Charge =  0 Multiplicity = 1

                         Standard orientation:
 ---------------------------------------------------------------------
 Center     Atomic      Atomic             Coordinates (Angstroms)
 Number     Number       Type             X           Y           Z
 ---------------------------------------------------------------------
      1          6           0        2.826358   -1.195728    1.064649
      2          1           0        3.220329   -0.894227    2.039484
      3          6           0        3.691128   -1.157593   -0.037492
      4          1           0        4.760781   -1.037094    0.154336
      5          1           0        3.472412   -1.779790   -0.908883
      6          6           0        1.435803   -1.334158    0.963954
      7          1           0        0.815380   -1.138747    1.835096
      8          6           0        0.812781   -1.521118   -0.260807
      9          1           0        1.367817   -1.908508   -1.111064
     10          7           0       -0.546082   -1.475332   -0.496218
     11          1           0       -0.843465   -1.583771   -1.459152
     12          6           0       -1.489751   -0.859974    0.309748
     13          8           0       -1.326735   -0.521097    1.466393
     14          8           0       -2.639345   -0.742473   -0.380514
     15          6           0        1.873541    0.577928   -1.391584
     16          1           0        1.566856    0.176743   -2.358211
     17          6           0        3.220066    0.565458   -1.002631
     18          1           0        3.967746    0.400335   -1.782694
     19          1           0        3.521655    1.261091   -0.219177
     20          6           0        0.822163    1.277586   -0.677678
     21          8           0       -0.344490    1.364375   -1.053161
     22          8           0        1.257244    1.836884    0.487754
     23          6           0        0.238818    2.445465    1.291249
     24          1           0        0.766583    2.912106    2.132745
     25          1           0       -0.313075    3.204432    0.716669
     26          1           0       -0.466680    1.682886    1.653399
     27          6           0       -3.674131    0.025549    0.275505
     28          1           0       -3.873391   -0.414180    1.264611
     29          1           0       -3.295496    1.048887    0.424348
     30          6           0       -4.891172   -0.003687   -0.622853
     31          1           0       -5.246983   -1.035333   -0.770067
     32          1           0       -5.704206    0.581848   -0.166378
     33          1           0       -4.660706    0.430765   -1.607663
 ---------------------------------------------------------------------

 SCF Done:  E(RB3LYP) =  -785.424427096     A.U. after   13 cycles

 The electronic state is 1-A.
 Alpha  occ. eigenvalues --  -19.17094 -19.15051 -19.11066 -19.08846 -14.37103
 Alpha  occ. eigenvalues --  -10.33315 -10.28144 -10.24007 -10.23220 -10.20947
 Alpha  occ. eigenvalues --  -10.19134 -10.18847 -10.18584 -10.17527 -10.17395
 Alpha  occ. eigenvalues --  -10.17185  -1.11858  -1.08347  -1.02729  -0.99480
 Alpha  occ. eigenvalues --   -0.96080  -0.82363  -0.78348  -0.77602  -0.73380
 Alpha  occ. eigenvalues --   -0.70434  -0.67523  -0.63000  -0.62239  -0.59961
 Alpha  occ. eigenvalues --   -0.57114  -0.54837  -0.54369  -0.51466  -0.50556
 Alpha  occ. eigenvalues --   -0.49433  -0.47725  -0.47101  -0.46639  -0.45193
 Alpha  occ. eigenvalues --   -0.45045  -0.44328  -0.42516  -0.41718  -0.41018
 Alpha  occ. eigenvalues --   -0.39905  -0.39672  -0.38573  -0.37930  -0.37335
 Alpha  occ. eigenvalues --   -0.36374  -0.36067  -0.35430  -0.34681  -0.33211
 Alpha  occ. eigenvalues --   -0.31211  -0.29529  -0.29165  -0.27071  -0.25192
 Alpha  occ. eigenvalues --   -0.21074
 Alpha virt. eigenvalues --   -0.06548  -0.01109   0.01464   0.02655   0.02767
 Alpha virt. eigenvalues --    0.03916   0.04487   0.05557   0.05791   0.06702
 Alpha virt. eigenvalues --    0.07074   0.07436   0.07666   0.08563   0.09184

 Mulliken charges:
               1
     1  C   -0.125774
     2  H    0.123718
     3  C   -0.174755
     4  H    0.129551
     5  H    0.092662
     6  C   -0.173152
     7  H    0.135932
     8  C    0.119529
     9  H    0.135264
    10  N   -0.321563
    11  H    0.179271
    12  C    0.654823
    13  O   -0.477255
    14  O   -0.376752
    15  C   -0.272263
    16  H    0.136656
    17  C   -0.155331
    18  H    0.130434
    19  H    0.113907
    20  C    0.526429
    21  O   -0.514989
    22  O   -0.364406
    23  C   -0.076442
    24  H    0.101996
    25  H    0.085486
    26  H    0.094223
    27  C    0.085508
    28  H    0.086972
    29  H    0.081676
    30  C   -0.262644
    31  H    0.091625
    32  H    0.089708
    33  H    0.099958
 Sum of Mulliken charges =   0.00000

 Dipole moment (field-independent basis, Debye):
    X=              0.7910    Y=             -1.6356    Z=             -1.0370  Tot=              2.0919
 Quadrupole moment (field-independent basis, Debye-Ang):
   XX=            -79.6631   YY=            -97.0168   ZZ=            -95.9256
   XY=             -1.8434   XZ=             -1.8183   YZ=              9.2682

 Normal termination of Gaussian 09 at Tue Mar 21 00:06:19 2017.
