 Gaussian 09, Revision D.01,
 Gaussian 09:  EM64L-G09RevD.01 24-Apr-2013

 ----------------------------------------------------------------------
 #p b3lyp empiricaldispersion=gd3bj midix scrf=(pcm,solvent=1,4-dioxane
 ) opt=(ts,calcfc,maxstep=5,noeigentest) freq=noraman
 ----------------------------------------------------------------------

 -------------------
 Title Card Required
 -------------------
 Symbolic Z-matrix:
 Charge =  0 Multiplicity = 1

 SCF Done:  E(RB3LYP) =  -663.309140221     A.U. after   14 cycles
 SCF Done:  E(RB3LYP) =  -663.309036302     A.U. after   11 cycles
 SCF Done:  E(RB3LYP) =  -663.309012910     A.U. after   11 cycles
 SCF Done:  E(RB3LYP) =  -663.309012315     A.U. after    9 cycles
 Optimization completed.
    -- Stationary point found.
 Normal termination of Gaussian 09 at Mon Mar 20 12:23:05 2017.

 -----------------------------------------------------------------
 #P Geom=AllCheck Guess=TCheck SCRF=Check GenChk RB3LYP/MIDIx Freq
 -----------------------------------------------------------------

 Structure from the checkpoint file:  "/scratch/ekwan_da_ortho_exo-b3lyp_d3bj-midix-ts/Gau-31132.chk"
 -------------------
 Title Card Required
 -------------------
 Charge =  0 Multiplicity = 1

                         Standard orientation:
 ---------------------------------------------------------------------
 Center     Atomic      Atomic             Coordinates (Angstroms)
 Number     Number       Type             X           Y           Z
 ---------------------------------------------------------------------
      1          6           0       -1.215984    2.370538   -0.223920
      2          1           0       -1.298456    3.371021    0.201015
      3          6           0       -2.389110    1.627855   -0.390717
      4          1           0       -3.344743    2.130451   -0.244750
      5          1           0       -2.426199    0.805609   -1.105913
      6          6           0        0.069789    1.833154   -0.335720
      7          1           0        0.928221    2.386694    0.025189
      8          6           0        0.255613    0.518162   -0.728073
      9          1           0       -0.502804    0.024234   -1.325584
     10          7           0        1.427083   -0.228242   -0.671677
     11          1           0        1.244989   -1.249842   -0.656478
     12          6           0        2.568278    0.173829    0.011176
     13          8           0        2.850194    1.309173    0.366900
     14          8           0        3.378948   -0.916238    0.196006
     15          6           0       -1.180030   -0.523625    1.046274
     16          1           0       -0.325814   -0.378075    1.696478
     17          6           0       -2.332915    0.260101    1.160768
     18          1           0       -2.398850    0.948759    2.000488
     19          1           0       -3.282778   -0.170118    0.846502
     20          6           0       -1.095635   -1.669661    0.171612
     21          8           0       -0.133589   -2.440373    0.037657
     22          8           0       -2.202726   -1.788183   -0.656129
     23          1           0        4.177510   -0.547981    0.660008
     24          1           0       -1.983316   -2.580209   -1.219094
 ---------------------------------------------------------------------

 SCF Done:  E(RB3LYP) =  -663.309012315     A.U. after    1 cycles

 The electronic state is 1-A.
 Alpha  occ. eigenvalues --  -19.07150 -19.06457 -19.01317 -19.00451 -14.28748
 Alpha  occ. eigenvalues --  -10.28049 -10.24308 -10.18442 -10.13952 -10.13206
 Alpha  occ. eigenvalues --  -10.13096 -10.12159 -10.11919  -1.10648  -1.08552
 Alpha  occ. eigenvalues --   -1.01587  -0.99673  -0.95049  -0.82735  -0.78426
 Alpha  occ. eigenvalues --   -0.73787  -0.67384  -0.65095  -0.60405  -0.57294
 Alpha  occ. eigenvalues --   -0.56486  -0.53042  -0.50431  -0.48194  -0.47345
 Alpha  occ. eigenvalues --   -0.47168  -0.45982  -0.44854  -0.44846  -0.42976
 Alpha  occ. eigenvalues --   -0.42199  -0.40472  -0.38794  -0.38246  -0.37419
 Alpha  occ. eigenvalues --   -0.36261  -0.35886  -0.32415  -0.30463  -0.29839
 Alpha  occ. eigenvalues --   -0.27316  -0.26152  -0.24525  -0.20618
 Alpha virt. eigenvalues --   -0.05107  -0.00353   0.04999   0.07050   0.07588
 Alpha virt. eigenvalues --    0.07768   0.10422   0.11934   0.12565   0.12966
 Alpha virt. eigenvalues --    0.14137   0.17081   0.18415   0.18444   0.20189

 Mulliken charges:
               1
     1  C   -0.153279
     2  H    0.169901
     3  C   -0.350634
     4  H    0.172698
     5  H    0.187572
     6  C   -0.210513
     7  H    0.189268
     8  C    0.136616
     9  H    0.196322
    10  N   -0.782758
    11  H    0.334753
    12  C    1.050096
    13  O   -0.586400
    14  O   -0.621992
    15  C   -0.262709
    16  H    0.174081
    17  C   -0.294325
    18  H    0.179814
    19  H    0.195945
    20  C    0.752650
    21  O   -0.620704
    22  O   -0.613815
    23  H    0.389032
    24  H    0.368379
 Sum of Mulliken charges =   0.00000

 Dipole moment (field-independent basis, Debye):
    X=             -1.2415    Y=             -0.0442    Z=             -0.3007  Tot=              1.2781
 Quadrupole moment (field-independent basis, Debye-Ang):
   XX=            -66.1645   YY=            -78.7253   ZZ=            -73.3834
   XY=             -3.4731   XZ=              2.7444   YZ=              4.8263

  Exact polarizability: 160.841  -9.648 142.558  -2.910   0.620  75.860
 Approx polarizability: 227.385 -18.475 232.832 -11.656  -5.161 113.412

 ******    1 imaginary frequencies (negative Signs) ******

                      1                      2                      3
                      A                      A                      A
 Frequencies --   -384.6891                51.3393                67.6122
 Red. masses --      9.0366                 5.4943                10.2686
 Frc consts  --      0.7879                 0.0085                 0.0277
 IR Inten    --     47.4691                 0.8238                 2.3026

                      4                      5                      6
                      A                      A                      A
 Frequencies --     83.3039               106.5455               155.9866
 Red. masses --      7.7578                 6.4559                 5.6026
 Frc consts  --      0.0317                 0.0432                 0.0803
 IR Inten    --      1.8025                 1.3616                 0.5839

                      7                      8                      9
                      A                      A                      A
 Frequencies --    189.7989               223.1206               244.9595
 Red. masses --      6.2935                 6.3873                 4.1254
 Frc consts  --      0.1336                 0.1873                 0.1459
 IR Inten    --      7.9967                10.0491                 0.6269

                     10                     11                     12
                      A                      A                      A
 Frequencies --    289.1116               310.5801               364.7136
 Red. masses --      4.0198                 3.1359                 5.0869
 Frc consts  --      0.1980                 0.1782                 0.3987
 IR Inten    --      9.4657                 0.1776                 7.9278

                     13                     14                     15
                      A                      A                      A
 Frequencies --    391.3201               439.4382               503.0435
 Red. masses --      4.2399                 3.2027                 2.9600
 Frc consts  --      0.3825                 0.3644                 0.4413
 IR Inten    --      1.6705                30.2782                17.0101

                     16                     17                     18
                      A                      A                      A
 Frequencies --    518.9345               527.7808               543.1608
 Red. masses --      1.2020                 2.9827                 4.3108
 Frc consts  --      0.1907                 0.4895                 0.7493
 IR Inten    --    127.5521                77.7322                41.5497

                     19                     20                     21
                      A                      A                      A
 Frequencies --    582.6636               606.2953               609.9462
 Red. masses --      2.4973                 1.3206                 2.4094
 Frc consts  --      0.4995                 0.2860                 0.5281
 IR Inten    --     20.1058                50.2437                23.9508

                     22                     23                     24
                      A                      A                      A
 Frequencies --    682.5907               730.5344               739.9499
 Red. masses --      1.6880                 2.6586                 7.7656
 Frc consts  --      0.4634                 0.8360                 2.5051
 IR Inten    --     77.8753                 6.8713                68.5400

                     25                     26                     27
                      A                      A                      A
 Frequencies --    795.1200               821.6163               835.3282
 Red. masses --      1.7225                 2.0106                 2.0640
 Frc consts  --      0.6416                 0.7997                 0.8486
 IR Inten    --     91.9872                14.1854                90.7359

                     28                     29                     30
                      A                      A                      A
 Frequencies --    856.9348               912.2274               950.9045
 Red. masses --      2.2773                 1.4596                 1.7273
 Frc consts  --      0.9853                 0.7156                 0.9202
 IR Inten    --     11.4014                96.7391                 5.6228

                     31                     32                     33
                      A                      A                      A
 Frequencies --    952.2533               989.9754              1014.2590
 Red. masses --      2.0032                 1.3018                 1.3711
 Frc consts  --      1.0702                 0.7517                 0.8310
 IR Inten    --     14.6426                65.0562                99.4101

                     34                     35                     36
                      A                      A                      A
 Frequencies --   1060.2349              1069.6880              1078.2446
 Red. masses --      1.2290                 1.7383                 1.3832
 Frc consts  --      0.8140                 1.1719                 0.9475
 IR Inten    --     38.0605                14.1911               124.9181

                     37                     38                     39
                      A                      A                      A
 Frequencies --   1108.4001              1132.6267              1168.2373
 Red. masses --      1.4514                 1.3131                 2.3482
 Frc consts  --      1.0506                 0.9924                 1.8882
 IR Inten    --     30.7325                14.8099               594.8561

                     40                     41                     42
                      A                      A                      A
 Frequencies --   1201.3468              1245.9507              1269.0519
 Red. masses --      1.5650                 1.8254                 1.7050
 Frc consts  --      1.3307                 1.6696                 1.6178
 IR Inten    --    223.9148                40.1289                 9.9244

                     43                     44                     45
                      A                      A                      A
 Frequencies --   1308.2557              1340.1319              1373.4141
 Red. masses --      1.4719                 1.6552                 2.0478
 Frc consts  --      1.4843                 1.7515                 2.2759
 IR Inten    --      2.7720                84.3529                73.0166

                     46                     47                     48
                      A                      A                      A
 Frequencies --   1384.3131              1402.5629              1444.4497
 Red. masses --      1.8796                 1.5455                 2.0789
 Frc consts  --      2.1221                 1.7913                 2.5556
 IR Inten    --     42.0710                25.2281                51.0668

                     49                     50                     51
                      A                      A                      A
 Frequencies --   1522.7705              1542.5800              1575.4528
 Red. masses --      1.6145                 1.3907                 1.8847
 Frc consts  --      2.2058                 1.9498                 2.7562
 IR Inten    --     27.7499                52.9281               705.7762

                     52                     53                     54
                      A                      A                      A
 Frequencies --   1598.0275              1624.4424              1730.1634
 Red. masses --      1.8731                 2.5034                 5.8925
 Frc consts  --      2.8182                 3.8921                10.3926
 IR Inten    --     11.0397                10.2636               414.0946

                     55                     56                     57
                      A                      A                      A
 Frequencies --   1815.9476              3125.9407              3140.8317
 Red. masses --      7.8708                 1.0570                 1.0562
 Frc consts  --     15.2923                 6.0856                 6.1389
 IR Inten    --    287.9028                 7.5315                 8.7053

                     58                     59                     60
                      A                      A                      A
 Frequencies --   3159.7345              3203.3718              3214.3907
 Red. masses --      1.0890                 1.1123                 1.0905
 Frc consts  --      6.4059                 6.7248                 6.6385
 IR Inten    --     13.1882                14.2465                 5.4544

                     61                     62                     63
                      A                      A                      A
 Frequencies --   3217.1808              3237.8096              3245.9656
 Red. masses --      1.1073                 1.0963                 1.0884
 Frc consts  --      6.7527                 6.7712                 6.7566
 IR Inten    --      6.3825                 3.6155                 1.7199

                     64                     65                     66
                      A                      A                      A
 Frequencies --   3255.4626              3502.4275              3533.1277
 Red. masses --      1.0778                 1.0639                 1.0642
 Frc consts  --      6.7301                 7.6896                 7.8267
 IR Inten    --    117.8122                80.6051               120.6326

 - Thermochemistry -
 -------------------
 Temperature   298.150 Kelvin.  Pressure   1.00000 Atm.
 Atom     1 has atomic number  6 and mass  12.00000

 Molecular mass:   185.06881 amu.
 Principal axes and moments of inertia in atomic units:
                           1         2         3
     Eigenvalues --  1675.434372893.871924077.35219
           X            0.99941  -0.03429  -0.00001
           Y            0.03428   0.99934   0.01208
           Z           -0.00040  -0.01207   0.99993
 This molecule is an asymmetric top.
 Rotational symmetry number  1.
 Warning -- assumption of classical behavior for rotation
           may cause significant error
 Rotational temperatures (Kelvin)      0.05170     0.02993     0.02124
 Rotational constants (GHZ):           1.07718     0.62364     0.44263
    1 imaginary frequencies ignored.
 Zero-point vibrational energy     495995.0 (Joules/Mol)
                                  118.54564 (Kcal/Mol)
 Warning -- explicit consideration of  20 degrees of freedom as
           vibrations may cause significant error
 Vibrational temperatures:     73.87    97.28   119.86   153.30   224.43
          (Kelvin)            273.08   321.02   352.44   415.97   446.85
                              524.74   563.02   632.25   723.77   746.63
                              759.36   781.49   838.32   872.32   877.58
                              982.09  1051.07  1064.62  1144.00  1182.12
                             1201.85  1232.94  1312.49  1368.14  1370.08
                             1424.35  1459.29  1525.44  1539.04  1551.35
                             1594.74  1629.60  1680.83  1728.47  1792.64
                             1825.88  1882.29  1928.15  1976.03  1991.72
                             2017.97  2078.24  2190.92  2219.43  2266.72
                             2299.20  2337.21  2489.32  2612.74  4497.53
                             4518.95  4546.15  4608.93  4624.79  4628.80
                             4658.48  4670.21  4683.88  5039.21  5083.38

 Zero-point correction=                           0.188915 (Hartree/Particle)
 Thermal correction to Energy=                    0.201265
 Thermal correction to Enthalpy=                  0.202210
 Thermal correction to Gibbs Free Energy=         0.149989
 Sum of electronic and zero-point Energies=           -663.120098
 Sum of electronic and thermal Energies=              -663.107747
 Sum of electronic and thermal Enthalpies=            -663.106803
 Sum of electronic and thermal Free Energies=         -663.159023

                     E (Thermal)             CV                S
                      KCal/Mol        Cal/Mol-Kelvin    Cal/Mol-Kelvin
 Total                  126.296             46.984            109.907
 Electronic               0.000              0.000              0.000
 Translational            0.889              2.981             41.553
 Rotational               0.889              2.981             31.359
 Vibrational            124.518             41.022             36.995
 Vibration     1          0.596              1.977              4.765
 Vibration     2          0.598              1.970              4.222
 Vibration     3          0.600              1.961              3.811
 Vibration     4          0.605              1.944              3.331
 Vibration     5          0.620              1.896              2.598
 Vibration     6          0.633              1.854              2.230
 Vibration     7          0.649              1.806              1.934
 Vibration     8          0.660              1.771              1.767
 Vibration     9          0.686              1.694              1.479
 Vibration    10          0.699              1.654              1.359
 Vibration    11          0.738              1.545              1.102
 Vibration    12          0.759              1.489              0.995
 Vibration    13          0.799              1.384              0.828
 Vibration    14          0.858              1.243              0.651
 Vibration    15          0.874              1.208              0.612
 Vibration    16          0.883              1.189              0.592
 Vibration    17          0.898              1.155              0.559
 Vibration    18          0.939              1.069              0.480
 Vibration    19          0.965              1.018              0.439
 Vibration    20          0.969              1.011              0.433

 Optimization completed.
    -- Stationary point found.
 Normal termination of Gaussian 09 at Mon Mar 20 12:25:15 2017.
