 Gaussian 09, Revision D.01,
 Gaussian 09:  EM64L-G09RevD.01 24-Apr-2013

 ----------------------------------------------------------------------
 #p b3lyp empiricaldispersion=gd3bj 6-31g* scrf=(pcm,solvent=1,4-dioxan
 e) opt=(ts,calcfc,maxstep=5,noeigentest) freq=noraman
 ----------------------------------------------------------------------

 -------------------
 Title Card Required
 -------------------
 Symbolic Z-matrix:
 Charge =  0 Multiplicity = 1

 SCF Done:  E(RB3LYP) =  -745.722333506     A.U. after   14 cycles
 SCF Done:  E(RB3LYP) =  -745.724892745     A.U. after   10 cycles
 SCF Done:  E(RB3LYP) =  -745.728202852     A.U. after   10 cycles
 SCF Done:  E(RB3LYP) =  -745.730897109     A.U. after   10 cycles
 SCF Done:  E(RB3LYP) =  -745.733061223     A.U. after   10 cycles
 SCF Done:  E(RB3LYP) =  -745.734778993     A.U. after   10 cycles
 SCF Done:  E(RB3LYP) =  -745.736131498     A.U. after    9 cycles
 SCF Done:  E(RB3LYP) =  -745.736908928     A.U. after    9 cycles
 SCF Done:  E(RB3LYP) =  -745.737817623     A.U. after    9 cycles
 SCF Done:  E(RB3LYP) =  -745.738520499     A.U. after    9 cycles
 SCF Done:  E(RB3LYP) =  -745.740988505     A.U. after   10 cycles
 SCF Done:  E(RB3LYP) =  -745.741012765     A.U. after    9 cycles
 SCF Done:  E(RB3LYP) =  -745.741027733     A.U. after    9 cycles
 SCF Done:  E(RB3LYP) =  -745.741033499     A.U. after    8 cycles
 SCF Done:  E(RB3LYP) =  -745.741034185     A.U. after    8 cycles
 SCF Done:  E(RB3LYP) =  -745.741033498     A.U. after    8 cycles
 SCF Done:  E(RB3LYP) =  -745.741000297     A.U. after   10 cycles
 SCF Done:  E(RB3LYP) =  -745.741034038     A.U. after   10 cycles
 SCF Done:  E(RB3LYP) =  -745.741034308     A.U. after    7 cycles
 Optimization completed.
    -- Stationary point found.
 Normal termination of Gaussian 09 at Mon Mar 20 14:30:11 2017.

 --------------------------------------------------------------------
 #P Geom=AllCheck Guess=TCheck SCRF=Check GenChk RB3LYP/6-31G(d) Freq
 --------------------------------------------------------------------

 Structure from the checkpoint file:  "/scratch/ekwan_da_ortho_endo_full-b3lyp_d3bj-631gd-ts/Gau-21623.chk"
 -------------------
 Title Card Required
 -------------------
 Charge =  0 Multiplicity = 1

                         Standard orientation:
 ---------------------------------------------------------------------
 Center     Atomic      Atomic             Coordinates (Angstroms)
 Number     Number       Type             X           Y           Z
 ---------------------------------------------------------------------
      1          6           0        2.373414   -1.244516    1.183825
      2          1           0        2.693501   -0.965263    2.185286
      3          6           0        3.321411   -1.202622    0.156308
      4          1           0        4.369173   -1.106304    0.430829
      5          1           0        3.165565   -1.802202   -0.736492
      6          6           0        0.993121   -1.356986    0.974211
      7          1           0        0.316580   -1.167022    1.796103
      8          6           0        0.464289   -1.509385   -0.294870
      9          1           0        1.073924   -1.882757   -1.105123
     10          7           0       -0.873303   -1.444622   -0.634960
     11          1           0       -1.089980   -1.525405   -1.619402
     12          6           0       -1.872947   -0.841262    0.106584
     13          8           0       -1.802011   -0.522965    1.279048
     14          8           0       -2.969303   -0.712284   -0.666861
     15          6           0        1.649302    0.591327   -1.314413
     16          1           0        1.423958    0.210196   -2.304849
     17          6           0        2.955648    0.551825   -0.816677
     18          1           0        3.760433    0.389658   -1.529690
     19          1           0        3.204451    1.224046   -0.003446
     20          6           0        0.551521    1.294708   -0.682152
     21          8           0       -0.578311    1.401420   -1.155943
     22          8           0        0.892015    1.837661    0.520934
     23          6           0       -0.184862    2.451327    1.238951
     24          1           0        0.268350    2.881032    2.133709
     25          1           0       -0.655411    3.234093    0.637760
     26          1           0       -0.933776    1.702680    1.509932
     27          6           0       -4.056909   -0.004053   -0.053808
     28          1           0       -4.869363   -0.037699   -0.779251
     29          1           0       -4.353301   -0.485804    0.880699
     30          1           0       -3.764032    1.030260    0.143471
 ---------------------------------------------------------------------

 SCF Done:  E(RB3LYP) =  -745.741034308     A.U. after    1 cycles

 The electronic state is 1-A.
 Alpha  occ. eigenvalues --  -19.19417 -19.16704 -19.13399 -19.10606 -14.38796
 Alpha  occ. eigenvalues --  -10.34487 -10.28819 -10.24802 -10.23854 -10.21769
 Alpha  occ. eigenvalues --  -10.19815 -10.19602 -10.19404 -10.18403 -10.18107
 Alpha  occ. eigenvalues --   -1.11328  -1.07260  -1.02017  -0.98229  -0.95472
 Alpha  occ. eigenvalues --   -0.81572  -0.77245  -0.74938  -0.71104  -0.69504
 Alpha  occ. eigenvalues --   -0.65035  -0.61947  -0.59608  -0.56300  -0.54058
 Alpha  occ. eigenvalues --   -0.53709  -0.50869  -0.49156  -0.48566  -0.47056
 Alpha  occ. eigenvalues --   -0.45873  -0.45536  -0.44482  -0.44149  -0.42728
 Alpha  occ. eigenvalues --   -0.42166  -0.41589  -0.40079  -0.38462  -0.37850
 Alpha  occ. eigenvalues --   -0.37158  -0.36538  -0.35409  -0.34482  -0.33547
 Alpha  occ. eigenvalues --   -0.32268  -0.30329  -0.28384  -0.27744  -0.25471
 Alpha  occ. eigenvalues --   -0.23930  -0.19839
 Alpha virt. eigenvalues --   -0.05015   0.00599   0.05406   0.07194   0.07404
 Alpha virt. eigenvalues --    0.10331   0.10694   0.12153   0.12704   0.13642
 Alpha virt. eigenvalues --    0.13935   0.14275   0.15251   0.16210   0.16459

 Mulliken charges:
               1
     1  C   -0.068634
     2  H    0.142680
     3  C   -0.360946
     4  H    0.156089
     5  H    0.164766
     6  C   -0.128558
     7  H    0.176892
     8  C    0.030499
     9  H    0.168957
    10  N   -0.608718
    11  H    0.363658
    12  C    0.833913
    13  O   -0.517707
    14  O   -0.478488
    15  C   -0.189968
    16  H    0.134490
    17  C   -0.326610
    18  H    0.163758
    19  H    0.180853
    20  C    0.646202
    21  O   -0.573339
    22  O   -0.479138
    23  C   -0.234793
    24  H    0.152674
    25  H    0.157422
    26  H    0.185042
    27  C   -0.218108
    28  H    0.172774
    29  H    0.173431
    30  H    0.180906
 Sum of Mulliken charges =   0.00000

 Dipole moment (field-independent basis, Debye):
    X=              0.8216    Y=             -1.7527    Z=             -0.8031  Tot=              2.0957
 Quadrupole moment (field-independent basis, Debye-Ang):
   XX=            -72.3707   YY=            -87.9331   ZZ=            -86.6528
   XY=             -2.1148   XZ=             -0.6617   YZ=              8.6198

  Exact polarizability: 203.507  -6.621 127.448   4.383  -6.846 132.645
 Approx polarizability: 273.039  -0.289 185.394  17.979 -27.112 215.425

 ******    1 imaginary frequencies (negative Signs) ******

                      1                      2                      3
                      A                      A                      A
 Frequencies --   -421.1676                55.9795                59.0448
 Red. masses --      9.6111                 4.2157                 3.8964
 Frc consts  --      1.0045                 0.0078                 0.0080
 IR Inten    --     38.6656                 2.1874                 2.8268

                      4                      5                      6
                      A                      A                      A
 Frequencies --     85.7840               107.2249               123.3950
 Red. masses --      3.8108                 2.9487                 2.9373
 Frc consts  --      0.0165                 0.0200                 0.0264
 IR Inten    --      1.0839                 3.3435                 1.3984

                      7                      8                      9
                      A                      A                      A
 Frequencies --    134.7367               141.6918               148.5010
 Red. masses --      3.6247                 4.5691                 1.9344
 Frc consts  --      0.0388                 0.0540                 0.0251
 IR Inten    --      0.8847                 0.7952                 1.8855

                     10                     11                     12
                      A                      A                      A
 Frequencies --    171.3670               192.8879               197.2488
 Red. masses --      1.9968                 1.6852                 4.6253
 Frc consts  --      0.0345                 0.0369                 0.1060
 IR Inten    --      1.5947                 3.1994                13.7501

                     13                     14                     15
                      A                      A                      A
 Frequencies --    217.6915               253.5152               287.4729
 Red. masses --      3.5666                 2.9367                 4.4945
 Frc consts  --      0.0996                 0.1112                 0.2188
 IR Inten    --     12.4761                 9.2150                 2.6739

                     16                     17                     18
                      A                      A                      A
 Frequencies --    297.1460               351.5976               371.4170
 Red. masses --      3.9768                 3.6357                 4.8537
 Frc consts  --      0.2069                 0.2648                 0.3945
 IR Inten    --     13.1355                14.9580                16.5224

                     19                     20                     21
                      A                      A                      A
 Frequencies --    399.4436               419.7377               466.1414
 Red. masses --      4.0938                 3.4168                 2.4342
 Frc consts  --      0.3849                 0.3547                 0.3116
 IR Inten    --      2.2355                 5.8779                23.4224

                     22                     23                     24
                      A                      A                      A
 Frequencies --    525.7167               548.4238               598.7460
 Red. masses --      2.7251                 3.8054                 1.3467
 Frc consts  --      0.4437                 0.6743                 0.2844
 IR Inten    --      2.2281                 8.0226               135.6972

                     25                     26                     27
                      A                      A                      A
 Frequencies --    643.3478               654.9587               721.1230
 Red. masses --      3.5363                 3.2669                 2.3795
 Frc consts  --      0.8624                 0.8257                 0.7290
 IR Inten    --      0.5558                 3.1894                 4.0472

                     28                     29                     30
                      A                      A                      A
 Frequencies --    749.6768               758.5419               784.7560
 Red. masses --      9.3906                 2.4702                 1.6643
 Frc consts  --      3.1095                 0.8374                 0.6039
 IR Inten    --     43.0223                61.0308                19.1778

                     31                     32                     33
                      A                      A                      A
 Frequencies --    795.4416               850.0867               864.5742
 Red. masses --      2.1761                 3.3083                 1.7545
 Frc consts  --      0.8112                 1.4086                 0.7727
 IR Inten    --     35.6485                26.3236                 9.7608

                     34                     35                     36
                      A                      A                      A
 Frequencies --    910.0505               943.6255               950.7322
 Red. masses --      1.3925                 1.2649                 3.2677
 Frc consts  --      0.6795                 0.6636                 1.7402
 IR Inten    --     48.9197                36.4702                 2.7136

                     37                     38                     39
                      A                      A                      A
 Frequencies --    969.3717              1007.2540              1044.1518
 Red. masses --      1.3602                 1.2453                 1.9333
 Frc consts  --      0.7531                 0.7444                 1.2419
 IR Inten    --     55.3520                 3.4995                41.0133

                     40                     41                     42
                      A                      A                      A
 Frequencies --   1052.4929              1071.8446              1102.2892
 Red. masses --      2.6232                 1.8287                 1.4423
 Frc consts  --      1.7120                 1.2378                 1.0325
 IR Inten    --     23.4177                17.2643                16.5515

                     43                     44                     45
                      A                      A                      A
 Frequencies --   1115.3571              1126.6727              1188.1495
 Red. masses --      2.1247                 1.6629                 1.2694
 Frc consts  --      1.5573                 1.2437                 1.0558
 IR Inten    --     80.4363                35.4244                 5.6570

                     46                     47                     48
                      A                      A                      A
 Frequencies --   1196.8586              1221.2349              1223.5235
 Red. masses --      1.2707                 1.4761                 1.4515
 Frc consts  --      1.0724                 1.2971                 1.2802
 IR Inten    --      1.1515                66.1859                12.5319

                     49                     50                     51
                      A                      A                      A
 Frequencies --   1243.3554              1258.5062              1265.7280
 Red. masses --      1.7858                 1.6331                 4.7280
 Frc consts  --      1.6265                 1.5240                 4.4628
 IR Inten    --    190.3448                19.4577               501.3800

                     52                     53                     54
                      A                      A                      A
 Frequencies --   1297.2021              1302.5985              1342.5603
 Red. masses --      2.4075                 1.6654                 1.4626
 Frc consts  --      2.3869                 1.6649                 1.5533
 IR Inten    --    338.5277                60.8005               119.3298

                     55                     56                     57
                      A                      A                      A
 Frequencies --   1389.7195              1428.4626              1488.1892
 Red. masses --      1.5729                 1.6295                 1.1846
 Frc consts  --      1.7898                 1.9590                 1.5457
 IR Inten    --     18.3187                40.4159                 6.3803

                     58                     59                     60
                      A                      A                      A
 Frequencies --   1495.9196              1503.4564              1510.4828
 Red. masses --      1.2138                 1.5111                 1.0597
 Frc consts  --      1.6003                 2.0125                 1.4245
 IR Inten    --     33.3132                31.5564                12.3433

                     61                     62                     63
                      A                      A                      A
 Frequencies --   1514.3574              1522.5978              1535.1271
 Red. masses --      1.0706                 1.0571                 1.0652
 Frc consts  --      1.4465                 1.4439                 1.4791
 IR Inten    --      9.4505                43.3120                 8.7961

                     64                     65                     66
                      A                      A                      A
 Frequencies --   1538.1970              1561.1796              1600.7026
 Red. masses --      1.5345                 2.0018                 2.5239
 Frc consts  --      2.1391                 2.8746                 3.8101
 IR Inten    --     36.4415               582.6593                11.2287

                     67                     68                     69
                      A                      A                      A
 Frequencies --   1638.1277              1734.1261              1809.6450
 Red. masses --      2.7460                 9.6581                 9.0346
 Frc consts  --      4.3415                17.1121                17.4319
 IR Inten    --     17.3713               510.8363               261.3863

                     70                     71                     72
                      A                      A                      A
 Frequencies --   3070.9944              3079.8521              3145.0566
 Red. masses --      1.0289                 1.0295                 1.0580
 Frc consts  --      5.7174                 5.7535                 6.1661
 IR Inten    --     50.9101                43.1754                 7.2200

                     73                     74                     75
                      A                      A                      A
 Frequencies --   3149.5001              3153.8720              3157.7798
 Red. masses --      1.1068                 1.0594                 1.1082
 Frc consts  --      6.4687                 6.2089                 6.5108
 IR Inten    --     15.8035                21.1732                21.2620

                     76                     77                     78
                      A                      A                      A
 Frequencies --   3170.4026              3177.5407              3189.1019
 Red. masses --      1.1073                 1.0900                 1.1068
 Frc consts  --      6.5577                 6.4844                 6.6324
 IR Inten    --     19.0064                12.0988                19.5965

                     79                     80                     81
                      A                      A                      A
 Frequencies --   3207.8550              3218.9243              3248.0684
 Red. masses --      1.0903                 1.1139                 1.1110
 Frc consts  --      6.6106                 6.8002                 6.9058
 IR Inten    --      7.7542                18.3460                 5.4518

                     82                     83                     84
                      A                      A                      A
 Frequencies --   3255.7835              3263.8701              3620.4250
 Red. masses --      1.0931                 1.0868                 1.0770
 Frc consts  --      6.8266                 6.8210                 8.3173
 IR Inten    --      5.9870                 1.1640                71.7963

 - Thermochemistry -
 -------------------
 Temperature   298.150 Kelvin.  Pressure   1.00000 Atm.
 Atom     1 has atomic number  6 and mass  12.00000

 Molecular mass:   213.10011 amu.
 Principal axes and moments of inertia in atomic units:
                           1         2         3
     Eigenvalues --  1908.862393990.268974645.45311
           X            0.99976  -0.02107  -0.00646
           Y            0.02141   0.99809   0.05803
           Z            0.00522  -0.05816   0.99829
 This molecule is an asymmetric top.
 Rotational symmetry number  1.
 Warning -- assumption of classical behavior for rotation
           may cause significant error
 Rotational temperatures (Kelvin)      0.04537     0.02171     0.01864
 Rotational constants (GHZ):           0.94545     0.45229     0.38850
    1 imaginary frequencies ignored.
 Zero-point vibrational energy     647121.7 (Joules/Mol)
                                  154.66579 (Kcal/Mol)
 Warning -- explicit consideration of  23 degrees of freedom as
           vibrations may cause significant error
 Vibrational temperatures:     80.54    84.95   123.42   154.27   177.54
          (Kelvin)            193.86   203.86   213.66   246.56   277.52
                              283.80   313.21   364.75   413.61   427.53
                              505.87   534.39   574.71   603.91   670.67
                              756.39   789.06   861.46   925.63   942.34
                             1037.53  1078.62  1091.37  1129.09  1144.46
                             1223.08  1243.93  1309.36  1357.66  1367.89
                             1394.71  1449.21  1502.30  1514.30  1542.14
                             1585.95  1604.75  1621.03  1709.48  1722.01
                             1757.08  1760.38  1788.91  1810.71  1821.10
                             1866.38  1874.15  1931.64  1999.49  2055.24
                             2141.17  2152.29  2163.14  2173.25  2178.82
                             2190.68  2208.70  2213.12  2246.19  2303.05
                             2356.90  2495.02  2603.67  4418.47  4431.21
                             4525.03  4531.42  4537.71  4543.34  4561.50
                             4571.77  4588.40  4615.38  4631.31  4673.24
                             4684.34  4695.98  5208.98

 Zero-point correction=                           0.246476 (Hartree/Particle)
 Thermal correction to Energy=                    0.262249
 Thermal correction to Enthalpy=                  0.263193
 Thermal correction to Gibbs Free Energy=         0.203792
 Sum of electronic and zero-point Energies=           -745.494559
 Sum of electronic and thermal Energies=              -745.478785
 Sum of electronic and thermal Enthalpies=            -745.477841
 Sum of electronic and thermal Free Energies=         -745.537242

                     E (Thermal)             CV                S
                      KCal/Mol        Cal/Mol-Kelvin    Cal/Mol-Kelvin
 Total                  164.564             57.898            125.021
 Electronic               0.000              0.000              0.000
 Translational            0.889              2.981             41.973
 Rotational               0.889              2.981             31.937
 Vibrational            162.786             51.937             51.110
 Vibration     1          0.596              1.975              4.594
 Vibration     2          0.596              1.974              4.489
 Vibration     3          0.601              1.959              3.754
 Vibration     4          0.606              1.943              3.319
 Vibration     5          0.610              1.930              3.047
 Vibration     6          0.613              1.919              2.877
 Vibration     7          0.615              1.912              2.781
 Vibration     8          0.618              1.904              2.691
 Vibration     9          0.626              1.878              2.420
 Vibration    10          0.635              1.850              2.200
 Vibration    11          0.637              1.844              2.159
 Vibration    12          0.646              1.814              1.978
 Vibration    13          0.665              1.757              1.706
 Vibration    14          0.685              1.697              1.489
 Vibration    15          0.691              1.679              1.433
 Vibration    16          0.728              1.572              1.159
 Vibration    17          0.743              1.531              1.074
 Vibration    18          0.765              1.471              0.965
 Vibration    19          0.782              1.427              0.893
 Vibration    20          0.824              1.325              0.748
 Vibration    21          0.881              1.193              0.597
 Vibration    22          0.904              1.143              0.547
 Vibration    23          0.957              1.034              0.452

 Optimization completed.
    -- Stationary point found.
 Normal termination of Gaussian 09 at Mon Mar 20 14:37:43 2017.
