 Gaussian 09, Revision D.01,
 Gaussian 09:  EM64L-G09RevD.01 24-Apr-2013

 ----------------------------------------------------------------------
 #p b3lyp empiricaldispersion=gd3bj midix scrf=(pcm,solvent=1,4-dioxane
 ) opt=modredundant freq=noraman
 ----------------------------------------------------------------------

 -------------------
 Title Card Required
 -------------------
 Symbolic Z-matrix:
 Charge =  0 Multiplicity = 1

 SCF Done:  E(RB3LYP) =  -663.286353217     A.U. after   14 cycles
 SCF Done:  E(RB3LYP) =  -663.281801678     A.U. after   15 cycles
 SCF Done:  E(RB3LYP) =  -663.300884984     A.U. after   12 cycles
 SCF Done:  E(RB3LYP) =  -663.280786178     A.U. after   14 cycles
 SCF Done:  E(RB3LYP) =  -663.303775357     A.U. after   11 cycles
 SCF Done:  E(RB3LYP) =  -663.291265856     A.U. after   14 cycles
 SCF Done:  E(RB3LYP) =  -663.304229866     A.U. after   10 cycles
 SCF Done:  E(RB3LYP) =  -663.304711158     A.U. after   11 cycles
 SCF Done:  E(RB3LYP) =  -663.306503361     A.U. after   11 cycles
 SCF Done:  E(RB3LYP) =  -663.308155974     A.U. after   12 cycles
 SCF Done:  E(RB3LYP) =  -663.309921737     A.U. after   10 cycles
 SCF Done:  E(RB3LYP) =  -663.309944218     A.U. after   10 cycles
 SCF Done:  E(RB3LYP) =  -663.309964507     A.U. after   10 cycles
 SCF Done:  E(RB3LYP) =  -663.309974391     A.U. after   10 cycles
 SCF Done:  E(RB3LYP) =  -663.309977579     A.U. after    9 cycles
 SCF Done:  E(RB3LYP) =  -663.309979690     A.U. after    8 cycles
 SCF Done:  E(RB3LYP) =  -663.309981402     A.U. after    9 cycles
 SCF Done:  E(RB3LYP) =  -663.309982118     A.U. after    8 cycles
 SCF Done:  E(RB3LYP) =  -663.309982446     A.U. after    8 cycles
 Optimization completed.
    -- Stationary point found.
 Normal termination of Gaussian 09 at Mon Mar 20 12:45:47 2017.

 -----------------------------------------------------------------
 #P Geom=AllCheck Guess=TCheck SCRF=Check GenChk RB3LYP/MIDIx Freq
 -----------------------------------------------------------------

 Structure from the checkpoint file:  "/scratch/ekwan_da_ortho_endo-b3lyp_d3bj-midix-freeze/Gau-19761.chk"
 -------------------
 Title Card Required
 -------------------
 Charge =  0 Multiplicity = 1

                         Standard orientation:
 ---------------------------------------------------------------------
 Center     Atomic      Atomic             Coordinates (Angstroms)
 Number     Number       Type             X           Y           Z
 ---------------------------------------------------------------------
      1          6           0        2.022070   -1.519642    0.577760
      2          1           0        2.359435   -1.770584    1.583063
      3          6           0        2.953320   -0.994026   -0.307250
      4          1           0        4.009482   -1.049483   -0.045130
      5          1           0        2.759764   -1.000177   -1.378625
      6          6           0        0.632360   -1.520160    0.366894
      7          1           0       -0.015809   -1.716396    1.211740
      8          6           0        0.045745   -1.106174   -0.803158
      9          1           0        0.602061   -1.032598   -1.731605
     10          7           0       -1.317254   -0.879481   -0.967139
     11          1           0       -1.620348   -0.577940   -1.896395
     12          6           0       -2.179876   -0.489412    0.051782
     13          8           0       -1.953712   -0.523210    1.259836
     14          8           0       -3.379448   -0.139505   -0.493554
     15          6           0        1.367216    1.334572   -0.713893
     16          1           0        1.241732    1.527271   -1.775896
     17          6           0        2.610601    1.036223   -0.179453
     18          1           0        3.498473    1.254993   -0.773119
     19          1           0        2.742543    1.119685    0.896169
     20          6           0        0.159849    1.492845    0.069619
     21          8           0       -0.944597    1.804006   -0.391499
     22          8           0        0.338118    1.217124    1.412933
     23          1           0       -3.925405    0.151100    0.284862
     24          1           0       -0.581750    0.977823    1.719377
 ---------------------------------------------------------------------

 SCF Done:  E(RB3LYP) =  -663.309982446     A.U. after    1 cycles

 The electronic state is 1-A.
 Alpha  occ. eigenvalues --  -19.07564 -19.03160 -19.01630 -18.98169 -14.29832
 Alpha  occ. eigenvalues --  -10.28938 -10.22228 -10.18091 -10.13597 -10.13333
 Alpha  occ. eigenvalues --  -10.12982 -10.12035 -10.11369  -1.11145  -1.05888
 Alpha  occ. eigenvalues --   -1.01828  -0.97433  -0.95610  -0.82576  -0.77858
 Alpha  occ. eigenvalues --   -0.74168  -0.67597  -0.63920  -0.60677  -0.57496
 Alpha  occ. eigenvalues --   -0.55191  -0.53505  -0.50637  -0.48298  -0.47179
 Alpha  occ. eigenvalues --   -0.46557  -0.46039  -0.44828  -0.44696  -0.42412
 Alpha  occ. eigenvalues --   -0.40915  -0.40529  -0.38098  -0.37359  -0.36549
 Alpha  occ. eigenvalues --   -0.35833  -0.34293  -0.33118  -0.30683  -0.28566
 Alpha  occ. eigenvalues --   -0.27374  -0.24603  -0.23421  -0.19837
 Alpha virt. eigenvalues --   -0.05112   0.00317   0.04666   0.07140   0.07291
 Alpha virt. eigenvalues --    0.08272   0.10820   0.11515   0.13180   0.13656
 Alpha virt. eigenvalues --    0.14820   0.15110   0.18356   0.18519   0.21311

 Mulliken charges:
               1
     1  C   -0.143760
     2  H    0.169402
     3  C   -0.342306
     4  H    0.176113
     5  H    0.181849
     6  C   -0.207821
     7  H    0.181958
     8  C    0.140419
     9  H    0.185397
    10  N   -0.756182
    11  H    0.332682
    12  C    1.078870
    13  O   -0.608740
    14  O   -0.623640
    15  C   -0.283741
    16  H    0.153868
    17  C   -0.291917
    18  H    0.183460
    19  H    0.191616
    20  C    0.800772
    21  O   -0.631211
    22  O   -0.646320
    23  H    0.394539
    24  H    0.364695
 Sum of Mulliken charges =   0.00000

 Dipole moment (field-independent basis, Debye):
    X=              0.6533    Y=             -1.8306    Z=             -1.7726  Tot=              2.6306
 Quadrupole moment (field-independent basis, Debye-Ang):
   XX=            -61.4922   YY=            -82.9589   ZZ=            -70.6779
   XY=              0.3723   XZ=             -1.9278   YZ=              1.6475

  Exact polarizability: 171.124  -4.210 105.478   2.869 -11.177  95.910
 Approx polarizability: 250.295  -8.225 173.635  20.077 -28.507 155.731

 ******    1 imaginary frequencies (negative Signs) ******

                      1                      2                      3
                      A                      A                      A
 Frequencies --   -322.5826                76.3733               104.7853
 Red. masses --      9.4218                 4.6971                 7.0320
 Frc consts  --      0.5777                 0.0161                 0.0455
 IR Inten    --     32.9046                 7.1637                 5.1443

                      4                      5                      6
                      A                      A                      A
 Frequencies --    126.8048               137.2655               155.5486
 Red. masses --      6.7294                 5.0023                 5.4459
 Frc consts  --      0.0638                 0.0555                 0.0776
 IR Inten    --      8.7232                 0.1452                 1.3736

                      7                      8                      9
                      A                      A                      A
 Frequencies --    173.6466               209.6270               251.8202
 Red. masses --      8.9020                 6.4295                 3.8148
 Frc consts  --      0.1582                 0.1665                 0.1425
 IR Inten    --      0.5673                 5.7579                 6.4239

                     10                     11                     12
                      A                      A                      A
 Frequencies --    272.8813               307.2884               360.4599
 Red. masses --      4.0090                 3.2144                 4.9101
 Frc consts  --      0.1759                 0.1788                 0.3759
 IR Inten    --      0.1798                 3.0514                 2.6761

                     13                     14                     15
                      A                      A                      A
 Frequencies --    381.1306               410.8110               461.7139
 Red. masses --      3.3786                 3.1309                 2.0541
 Frc consts  --      0.2892                 0.3113                 0.2580
 IR Inten    --     10.0016                26.6266                31.3855

                     16                     17                     18
                      A                      A                      A
 Frequencies --    475.3567               482.2737               522.9906
 Red. masses --      1.4113                 1.2779                 2.7740
 Frc consts  --      0.1879                 0.1751                 0.4470
 IR Inten    --     94.0743               125.7460                68.3287

                     19                     20                     21
                      A                      A                      A
 Frequencies --    555.0654               572.1955               594.3005
 Red. masses --      3.2452                 1.5979                 3.4006
 Frc consts  --      0.5891                 0.3082                 0.7076
 IR Inten    --     44.6262                27.5038                34.9515

                     22                     23                     24
                      A                      A                      A
 Frequencies --    623.6243               698.6818               715.7715
 Red. masses --      2.1656                 2.7558                 9.4451
 Frc consts  --      0.4962                 0.7926                 2.8510
 IR Inten    --     24.1920                 6.4484                84.2019

                     25                     26                     27
                      A                      A                      A
 Frequencies --    771.8388               800.8491               826.6224
 Red. masses --      2.1632                 1.8578                 2.0169
 Frc consts  --      0.7593                 0.7020                 0.8120
 IR Inten    --     31.9738                34.3312                33.7366

                     28                     29                     30
                      A                      A                      A
 Frequencies --    852.8004               881.4623               929.1562
 Red. masses --      2.5072                 1.7205                 3.4024
 Frc consts  --      1.0743                 0.7876                 1.7307
 IR Inten    --      9.5031                40.9733                32.8132

                     31                     32                     33
                      A                      A                      A
 Frequencies --    953.6236               971.1292               995.1072
 Red. masses --      1.3822                 1.2126                 1.3484
 Frc consts  --      0.7406                 0.6738                 0.7867
 IR Inten    --     82.9719                35.6409                41.0877

                     34                     35                     36
                      A                      A                      A
 Frequencies --   1037.6283              1067.7010              1094.7311
 Red. masses --      1.2567                 1.7565                 1.5764
 Frc consts  --      0.7972                 1.1797                 1.1131
 IR Inten    --     20.0515                24.0582                54.6584

                     37                     38                     39
                      A                      A                      A
 Frequencies --   1114.7107              1136.5692              1170.8204
 Red. masses --      1.3281                 1.3200                 2.4411
 Frc consts  --      0.9723                 1.0046                 1.9716
 IR Inten    --     12.6500                10.9657               591.3147

                     40                     41                     42
                      A                      A                      A
 Frequencies --   1238.4737              1248.5508              1284.3684
 Red. masses --      1.8619                 1.8334                 1.6917
 Frc consts  --      1.6826                 1.6840                 1.6442
 IR Inten    --    174.6651               115.8013                11.9282

                     43                     44                     45
                      A                      A                      A
 Frequencies --   1320.8177              1346.7058              1381.9135
 Red. masses --      1.4403                 1.4438                 1.8800
 Frc consts  --      1.4804                 1.5428                 2.1153
 IR Inten    --     15.0131                32.9275                24.0968

                     46                     47                     48
                      A                      A                      A
 Frequencies --   1399.6810              1405.3639              1454.3058
 Red. masses --      1.6391                 1.5992                 1.9073
 Frc consts  --      1.8919                 1.8610                 2.3767
 IR Inten    --     41.9893                15.0118                20.5176

                     49                     50                     51
                      A                      A                      A
 Frequencies --   1517.6268              1542.8145              1557.2022
 Red. masses --      1.4914                 1.6490                 1.7521
 Frc consts  --      2.0238                 2.3126                 2.5032
 IR Inten    --     18.6576               332.8423               163.8328

                     52                     53                     54
                      A                      A                      A
 Frequencies --   1604.0680              1649.5153              1733.9002
 Red. masses --      2.2785                 2.8655                 7.1465
 Frc consts  --      3.4542                 4.5937                12.6588
 IR Inten    --     16.1309                16.4107               457.8733

                     55                     56                     57
                      A                      A                      A
 Frequencies --   1782.7127              3131.2950              3136.7772
 Red. masses --      7.1947                 1.0588                 1.0579
 Frc consts  --     13.4718                 6.1165                 6.1328
 IR Inten    --    235.3070                 2.8492                17.6926

                     58                     59                     60
                      A                      A                      A
 Frequencies --   3162.9343              3195.6208              3208.5719
 Red. masses --      1.0892                 1.0904                 1.1129
 Frc consts  --      6.4199                 6.5607                 6.7505
 IR Inten    --      9.5558                 6.1625                14.5506

                     61                     62                     63
                      A                      A                      A
 Frequencies --   3220.2065              3229.0830              3247.6552
 Red. masses --      1.0913                 1.1091                 1.0880
 Frc consts  --      6.6676                 6.8138                 6.7611
 IR Inten    --      5.6628                 4.2535                 0.7107

                     64                     65                     66
                      A                      A                      A
 Frequencies --   3456.8320              3479.1991              3537.1180
 Red. masses --      1.0639                 1.0766                 1.0642
 Frc consts  --      7.4903                 7.6784                 7.8443
 IR Inten    --    117.7380                89.2953               136.3625

 - Thermochemistry -
 -------------------
 Temperature   298.150 Kelvin.  Pressure   1.00000 Atm.
 Atom     1 has atomic number  6 and mass  12.00000

 Molecular mass:   185.06881 amu.
 Principal axes and moments of inertia in atomic units:
                           1         2         3
     Eigenvalues --  1324.765082826.376233308.21227
           X            0.99997  -0.00653  -0.00517
           Y            0.00647   0.99992  -0.01097
           Z            0.00524   0.01094   0.99993
 This molecule is an asymmetric top.
 Rotational symmetry number  1.
 Warning -- assumption of classical behavior for rotation
           may cause significant error
 Rotational temperatures (Kelvin)      0.06538     0.03064     0.02618
 Rotational constants (GHZ):           1.36231     0.63854     0.54553
    1 imaginary frequencies ignored.
 Zero-point vibrational energy     494945.8 (Joules/Mol)
                                  118.29489 (Kcal/Mol)
 Warning -- explicit consideration of  20 degrees of freedom as
           vibrations may cause significant error
 Vibrational temperatures:    109.88   150.76   182.44   197.49   223.80
          (Kelvin)            249.84   301.61   362.31   392.61   442.12
                              518.62   548.36   591.06   664.30   683.93
                              693.88   752.47   798.61   823.26   855.06
                              897.26  1005.25  1029.83  1110.50  1152.24
                             1189.32  1226.99  1268.23  1336.85  1372.05
                             1397.24  1431.74  1492.91  1536.18  1575.07
                             1603.82  1635.27  1684.55  1781.89  1796.38
                             1847.92  1900.36  1937.61  1988.26  2013.83
                             2022.00  2092.42  2183.52  2219.76  2240.46
                             2307.89  2373.28  2494.69  2564.92  4505.23
                             4513.12  4550.75  4597.78  4616.41  4633.15
                             4645.92  4672.65  4973.60  5005.79  5089.12

 Zero-point correction=                           0.188515 (Hartree/Particle)
 Thermal correction to Energy=                    0.200938
 Thermal correction to Enthalpy=                  0.201882
 Thermal correction to Gibbs Free Energy=         0.150693
 Sum of electronic and zero-point Energies=           -663.121468
 Sum of electronic and thermal Energies=              -663.109044
 Sum of electronic and thermal Enthalpies=            -663.108100
 Sum of electronic and thermal Free Energies=         -663.159290

                     E (Thermal)             CV                S
                      KCal/Mol        Cal/Mol-Kelvin    Cal/Mol-Kelvin
 Total                  126.091             47.918            107.737
 Electronic               0.000              0.000              0.000
 Translational            0.889              2.981             41.553
 Rotational               0.889              2.981             30.894
 Vibrational            124.313             41.956             35.290
 Vibration     1          0.599              1.965              3.982
 Vibration     2          0.605              1.945              3.363
 Vibration     3          0.611              1.926              2.994
 Vibration     4          0.614              1.916              2.842
 Vibration     5          0.620              1.896              2.603
 Vibration     6          0.627              1.875              2.396
 Vibration     7          0.642              1.826              2.047
 Vibration     8          0.664              1.760              1.718
 Vibration     9          0.676              1.723              1.578
 Vibration    10          0.697              1.660              1.377
 Vibration    11          0.735              1.554              1.120
 Vibration    12          0.751              1.510              1.035
 Vibration    13          0.775              1.447              0.924
 Vibration    14          0.819              1.335              0.761
 Vibration    15          0.832              1.305              0.723
 Vibration    16          0.839              1.289              0.704
 Vibration    17          0.878              1.199              0.603
 Vibration    18          0.911              1.129              0.534
 Vibration    19          0.928              1.091              0.500
 Vibration    20          0.952              1.044              0.460

 Optimization completed.
    -- Stationary point found.
 Normal termination of Gaussian 09 at Mon Mar 20 12:48:03 2017.
