 Gaussian 09, Revision D.01,
 Gaussian 09:  EM64L-G09RevD.01 24-Apr-2013

 ----------------------------------------------------------------------
 #p b3lyp empiricaldispersion=gd3bj 6-31g* scrf=(pcm,solvent=1,4-dioxan
 e) opt=(ts,calcfc,maxstep=5,noeigentest) freq=noraman
 ----------------------------------------------------------------------

 -------------------
 Title Card Required
 -------------------
 Symbolic Z-matrix:
 Charge =  0 Multiplicity = 1

 SCF Done:  E(RB3LYP) =  -667.115054328     A.U. after   14 cycles
 SCF Done:  E(RB3LYP) =  -667.116195163     A.U. after   10 cycles
 SCF Done:  E(RB3LYP) =  -667.116950144     A.U. after   10 cycles
 SCF Done:  E(RB3LYP) =  -667.117436890     A.U. after   10 cycles
 SCF Done:  E(RB3LYP) =  -667.117751629     A.U. after   10 cycles
 SCF Done:  E(RB3LYP) =  -667.117951545     A.U. after   10 cycles
 SCF Done:  E(RB3LYP) =  -667.118074162     A.U. after   10 cycles
 SCF Done:  E(RB3LYP) =  -667.118144325     A.U. after   10 cycles
 SCF Done:  E(RB3LYP) =  -667.118178173     A.U. after   10 cycles
 SCF Done:  E(RB3LYP) =  -667.118186288     A.U. after    9 cycles
 Optimization completed.
    -- Stationary point found.
 Normal termination of Gaussian 09 at Mon Mar 20 13:27:53 2017.

 --------------------------------------------------------------------
 #P Geom=AllCheck Guess=TCheck SCRF=Check GenChk RB3LYP/6-31G(d) Freq
 --------------------------------------------------------------------

 Structure from the checkpoint file:  "/scratch/ekwan_da_ortho_exo-b3lyp_d3bj-631gd-ts/Gau-1613.chk"
 -------------------
 Title Card Required
 -------------------
 Charge =  0 Multiplicity = 1

                         Standard orientation:
 ---------------------------------------------------------------------
 Center     Atomic      Atomic             Coordinates (Angstroms)
 Number     Number       Type             X           Y           Z
 ---------------------------------------------------------------------
      1          6           0       -1.105985    2.429604   -0.207932
      2          1           0       -1.166746    3.411765    0.256639
      3          6           0       -2.300929    1.744166   -0.445064
      4          1           0       -3.233763    2.292855   -0.341316
      5          1           0       -2.338533    0.963939   -1.200303
      6          6           0        0.169103    1.846441   -0.279036
      7          1           0        1.019884    2.371739    0.134493
      8          6           0        0.322517    0.537056   -0.691943
      9          1           0       -0.438173    0.077245   -1.306294
     10          7           0        1.462137   -0.245764   -0.618697
     11          1           0        1.291634   -1.244889   -0.720178
     12          6           0        2.634957    0.093334    0.016933
     13          8           0        2.952244    1.197630    0.416385
     14          8           0        3.429443   -1.001469    0.109622
     15          6           0       -1.308911   -0.499938    1.027016
     16          1           0       -0.474871   -0.372156    1.704500
     17          6           0       -2.414394    0.357160    1.065063
     18          1           0       -2.494729    1.037918    1.906368
     19          1           0       -3.364740   -0.017044    0.696694
     20          6           0       -1.232741   -1.665505    0.179922
     21          8           0       -0.287240   -2.453127    0.108245
     22          8           0       -2.311744   -1.810598   -0.653667
     23          1           0        4.247415   -0.704819    0.545557
     24          1           0       -2.125669   -2.609597   -1.179709
 ---------------------------------------------------------------------

 SCF Done:  E(RB3LYP) =  -667.118186288     A.U. after    1 cycles

 The electronic state is 1-A.
 Alpha  occ. eigenvalues --  -19.20181 -19.18632 -19.13961 -19.12432 -14.38806
 Alpha  occ. eigenvalues --  -10.35303 -10.30792 -10.25207 -10.20530 -10.20082
 Alpha  occ. eigenvalues --  -10.19831 -10.18924 -10.18639  -1.11884  -1.09015
 Alpha  occ. eigenvalues --   -1.02343  -0.99607  -0.95670  -0.81988  -0.77662
 Alpha  occ. eigenvalues --   -0.73844  -0.67914  -0.64941  -0.60877  -0.58576
 Alpha  occ. eigenvalues --   -0.57419  -0.53732  -0.50998  -0.48504  -0.47830
 Alpha  occ. eigenvalues --   -0.47419  -0.46884  -0.45148  -0.44903  -0.43040
 Alpha  occ. eigenvalues --   -0.42758  -0.41543  -0.39080  -0.38471  -0.37412
 Alpha  occ. eigenvalues --   -0.36822  -0.36158  -0.33366  -0.31848  -0.30936
 Alpha  occ. eigenvalues --   -0.28792  -0.26885  -0.24853  -0.20632
 Alpha virt. eigenvalues --   -0.05997  -0.00484   0.04519   0.07205   0.07356
 Alpha virt. eigenvalues --    0.07694   0.10673   0.11225   0.12418   0.13435
 Alpha virt. eigenvalues --    0.14066   0.16281   0.18481   0.19027   0.20083

 Mulliken charges:
               1
     1  C   -0.074795
     2  H    0.145545
     3  C   -0.366326
     4  H    0.157843
     5  H    0.179301
     6  C   -0.138390
     7  H    0.181242
     8  C    0.027709
     9  H    0.187200
    10  N   -0.600744
    11  H    0.381339
    12  C    0.735630
    13  O   -0.496747
    14  O   -0.585750
    15  C   -0.156887
    16  H    0.155208
    17  C   -0.328844
    18  H    0.167807
    19  H    0.186628
    20  C    0.551633
    21  O   -0.554564
    22  O   -0.599463
    23  H    0.433469
    24  H    0.411957
 Sum of Mulliken charges =   0.00000

 Dipole moment (field-independent basis, Debye):
    X=             -1.3924    Y=              0.5925    Z=             -0.8113  Tot=              1.7170
 Quadrupole moment (field-independent basis, Debye-Ang):
   XX=            -66.1803   YY=            -78.7671   ZZ=            -72.8575
   XY=             -5.4016   XZ=              2.1701   YZ=              4.9827

  Exact polarizability: 168.603  -8.476 152.972  -2.366   0.957  77.952
 Approx polarizability: 234.485 -12.674 246.875 -11.039  -6.578 117.518

 ******    1 imaginary frequencies (negative Signs) ******

                      1                      2                      3
                      A                      A                      A
 Frequencies --   -397.9014                48.9066                58.2825
 Red. masses --      9.4631                 7.0371                 7.4937
 Frc consts  --      0.8827                 0.0099                 0.0150
 IR Inten    --     65.6273                 0.4715                 4.0060

                      4                      5                      6
                      A                      A                      A
 Frequencies --     75.5227                86.9860               142.8781
 Red. masses --      8.1004                 6.0907                 6.6565
 Frc consts  --      0.0272                 0.0272                 0.0801
 IR Inten    --      4.3497                 0.7721                 1.0184

                      7                      8                      9
                      A                      A                      A
 Frequencies --    174.6700               184.5171               230.6317
 Red. masses --      5.6456                 6.0839                 3.8571
 Frc consts  --      0.1015                 0.1220                 0.1209
 IR Inten    --      6.9895                11.0218                 0.1061

                     10                     11                     12
                      A                      A                      A
 Frequencies --    274.7259               301.6614               364.5890
 Red. masses --      4.0997                 2.9983                 4.7879
 Frc consts  --      0.1823                 0.1608                 0.3750
 IR Inten    --      9.0895                 0.0943                 7.1882

                     13                     14                     15
                      A                      A                      A
 Frequencies --    387.7444               426.9676               479.5411
 Red. masses --      4.4059                 3.0700                 2.7109
 Frc consts  --      0.3903                 0.3297                 0.3673
 IR Inten    --      0.4412                28.5306                18.7783

                     16                     17                     18
                      A                      A                      A
 Frequencies --    519.4190               525.8472               552.8269
 Red. masses --      1.2864                 2.3703                 4.2344
 Frc consts  --      0.2045                 0.3862                 0.7625
 IR Inten    --    140.4922               106.3045                22.8356

                     19                     20                     21
                      A                      A                      A
 Frequencies --    581.4398               593.5760               599.4242
 Red. masses --      2.0824                 1.4176                 2.7635
 Frc consts  --      0.4148                 0.2943                 0.5850
 IR Inten    --     57.8230                57.8215                42.4528

                     22                     23                     24
                      A                      A                      A
 Frequencies --    651.1737               722.4901               760.4317
 Red. masses --      1.3937                 1.9710                 8.7628
 Frc consts  --      0.3482                 0.6062                 2.9855
 IR Inten    --     88.4454                 6.4180                36.1211

                     25                     26                     27
                      A                      A                      A
 Frequencies --    771.7032               802.0059               814.5600
 Red. masses --      1.8477                 2.2493                 2.4268
 Frc consts  --      0.6483                 0.8524                 0.9487
 IR Inten    --     75.6623                 4.6986                85.5447

                     28                     29                     30
                      A                      A                      A
 Frequencies --    855.0702               889.8053               907.5820
 Red. masses --      2.3250                 1.4200                 1.5616
 Frc consts  --      1.0016                 0.6624                 0.7579
 IR Inten    --      0.0155                84.4180                31.8327

                     31                     32                     33
                      A                      A                      A
 Frequencies --    946.5482               961.5821               988.1798
 Red. masses --      2.8189                 1.3217                 1.3804
 Frc consts  --      1.4881                 0.7200                 0.7942
 IR Inten    --      2.7785                45.8716                72.6899

                     34                     35                     36
                      A                      A                      A
 Frequencies --   1024.9748              1056.2090              1071.3758
 Red. masses --      1.1624                 1.6447                 1.3259
 Frc consts  --      0.7195                 1.0811                 0.8967
 IR Inten    --      5.1736                18.0396               146.5261

                     37                     38                     39
                      A                      A                      A
 Frequencies --   1093.8519              1116.1570              1172.2320
 Red. masses --      1.3247                 1.4595                 2.2365
 Frc consts  --      0.9338                 1.0713                 1.8107
 IR Inten    --     28.7868                 1.9105               635.2386

                     40                     41                     42
                      A                      A                      A
 Frequencies --   1204.3081              1242.5554              1259.3135
 Red. masses --      1.5716                 1.8528                 1.6802
 Frc consts  --      1.3430                 1.6854                 1.5699
 IR Inten    --    318.6310                29.2942                12.2572

                     43                     44                     45
                      A                      A                      A
 Frequencies --   1296.9185              1338.1356              1364.9789
 Red. masses --      1.4087                 1.5907                 1.9881
 Frc consts  --      1.3960                 1.6781                 2.1825
 IR Inten    --      0.4736                70.5276                95.6179

                     46                     47                     48
                      A                      A                      A
 Frequencies --   1375.2218              1387.4032              1442.6272
 Red. masses --      1.8796                 1.5134                 2.0264
 Frc consts  --      2.0944                 1.7163                 2.4848
 IR Inten    --     67.7610                22.4551               104.9083

                     49                     50                     51
                      A                      A                      A
 Frequencies --   1503.3564              1538.2668              1585.5963
 Red. masses --      1.5732                 1.5355                 2.1502
 Frc consts  --      2.0949                 2.1407                 3.1851
 IR Inten    --     12.5089                33.9700               818.6916

                     52                     53                     54
                      A                      A                      A
 Frequencies --   1600.9955              1639.4530              1739.7524
 Red. masses --      2.3549                 2.5554                 7.1481
 Frc consts  --      3.5563                 4.0468                12.7472
 IR Inten    --     12.3037                11.8089               588.0854

                     55                     56                     57
                      A                      A                      A
 Frequencies --   1827.4724              3149.7656              3163.8812
 Red. masses --      8.4273                 1.0570                 1.0567
 Frc consts  --     16.5822                 6.1784                 6.2325
 IR Inten    --    392.8255                 6.7282                 9.0099

                     58                     59                     60
                      A                      A                      A
 Frequencies --   3175.1551              3224.4489              3238.2469
 Red. masses --      1.0898                 1.1145                 1.1030
 Frc consts  --      6.4734                 6.8275                 6.8145
 IR Inten    --     15.0829                14.7079                 5.5909

                     61                     62                     63
                      A                      A                      A
 Frequencies --   3252.3726              3252.4492              3260.2500
 Red. masses --      1.0945                 1.1018                 1.0865
 Frc consts  --      6.8214                 6.8671                 6.8046
 IR Inten    --      2.4060                 6.5789                 1.4543

                     64                     65                     66
                      A                      A                      A
 Frequencies --   3511.2677              3703.1819              3733.8298
 Red. masses --      1.0776                 1.0645                 1.0649
 Frc consts  --      7.8277                 8.6006                 8.7472
 IR Inten    --     79.0286                90.4917               145.7993

 - Thermochemistry -
 -------------------
 Temperature   298.150 Kelvin.  Pressure   1.00000 Atm.
 Atom     1 has atomic number  6 and mass  12.00000

 Molecular mass:   185.06881 amu.
 Principal axes and moments of inertia in atomic units:
                           1         2         3
     Eigenvalues --  1698.463593004.483134244.31988
           X            0.99939  -0.03502   0.00021
           Y            0.03502   0.99932   0.01169
           Z           -0.00062  -0.01167   0.99993
 This molecule is an asymmetric top.
 Rotational symmetry number  1.
 Warning -- assumption of classical behavior for rotation
           may cause significant error
 Rotational temperatures (Kelvin)      0.05100     0.02883     0.02041
 Rotational constants (GHZ):           1.06257     0.60068     0.42521
    1 imaginary frequencies ignored.
 Zero-point vibrational energy     497809.8 (Joules/Mol)
                                  118.97939 (Kcal/Mol)
 Warning -- explicit consideration of  20 degrees of freedom as
           vibrations may cause significant error
 Vibrational temperatures:     70.37    83.86   108.66   125.15   205.57
          (Kelvin)            251.31   265.48   331.83   395.27   434.02
                              524.56   557.88   614.31   689.95   747.33
                              756.58   795.39   836.56   854.02   862.44
                              936.89  1039.50  1094.09  1110.31  1153.91
                             1171.97  1230.25  1280.23  1305.81  1361.87
                             1383.50  1421.77  1474.71  1519.65  1541.47
                             1573.81  1605.90  1686.58  1732.73  1787.76
                             1811.87  1865.97  1925.28  1963.90  1978.63
                             1996.16  2075.62  2162.99  2213.22  2281.32
                             2303.47  2358.80  2503.11  2629.32  4531.80
                             4552.11  4568.33  4639.26  4659.11  4679.43
                             4679.54  4690.77  5051.92  5328.05  5372.14

 Zero-point correction=                           0.189606 (Hartree/Particle)
 Thermal correction to Energy=                    0.202294
 Thermal correction to Enthalpy=                  0.203238
 Thermal correction to Gibbs Free Energy=         0.149929
 Sum of electronic and zero-point Energies=           -666.928581
 Sum of electronic and thermal Energies=              -666.915892
 Sum of electronic and thermal Enthalpies=            -666.914948
 Sum of electronic and thermal Free Energies=         -666.968257

                     E (Thermal)             CV                S
                      KCal/Mol        Cal/Mol-Kelvin    Cal/Mol-Kelvin
 Total                  126.941             47.687            112.198
 Electronic               0.000              0.000              0.000
 Translational            0.889              2.981             41.553
 Rotational               0.889              2.981             31.449
 Vibrational            125.164             41.725             39.196
 Vibration     1          0.595              1.978              4.861
 Vibration     2          0.596              1.974              4.515
 Vibration     3          0.599              1.965              4.004
 Vibration     4          0.601              1.958              3.727
 Vibration     5          0.616              1.910              2.765
 Vibration     6          0.627              1.874              2.385
 Vibration     7          0.631              1.861              2.282
 Vibration     8          0.652              1.794              1.874
 Vibration     9          0.677              1.720              1.566
 Vibration    10          0.694              1.671              1.408
 Vibration    11          0.738              1.545              1.102
 Vibration    12          0.756              1.496              1.009
 Vibration    13          0.789              1.412              0.869
 Vibration    14          0.836              1.295              0.711
 Vibration    15          0.874              1.207              0.611
 Vibration    16          0.881              1.193              0.597
 Vibration    17          0.908              1.134              0.538
 Vibration    18          0.938              1.071              0.483
 Vibration    19          0.951              1.045              0.461
 Vibration    20          0.957              1.033              0.451

 Normal termination of Gaussian 09 at Mon Mar 20 13:31:44 2017.
