 Gaussian 09, Revision D.01,
 Gaussian 09:  EM64L-G09RevD.01 24-Apr-2013

 ----------------------------------------------------------------------
 #p b3lyp/6-31g* empiricaldispersion=gd3bj opt freq=noraman pop=(chelpg
 ,npa)
 ----------------------------------------------------------------------

 -------------------
 Title Card Required
 -------------------
 Symbolic Z-matrix:
 Charge =  0 Multiplicity = 1

 SCF Done:  E(RB3LYP) =  -191.913241541     A.U. after   14 cycles
 SCF Done:  E(RB3LYP) =  -191.919717236     A.U. after   13 cycles
 SCF Done:  E(RB3LYP) =  -191.919995056     A.U. after   11 cycles
 SCF Done:  E(RB3LYP) =  -191.920021167     A.U. after   11 cycles
 SCF Done:  E(RB3LYP) =  -191.920022614     A.U. after    8 cycles
 Optimization completed.
    -- Stationary point found.
 Normal termination of Gaussian 09 at Mon Apr  3 12:29:04 2017.

 --------------------------------------------------------------------
 #P Geom=AllCheck Guess=TCheck SCRF=Check GenChk RB3LYP/6-31G(d) Freq
 --------------------------------------------------------------------

 Structure from the checkpoint file:  "g09.chk"
 -------------------
 Title Card Required
 -------------------
 Charge =  0 Multiplicity = 1

                         Standard orientation:
 ---------------------------------------------------------------------
 Center     Atomic      Atomic             Coordinates (Angstroms)
 Number     Number       Type             X           Y           Z
 ---------------------------------------------------------------------
      1          6           0        0.000000    0.719720    0.000000
      2          1           0       -0.919135    1.300808    0.000000
      3          6           0        1.209996    1.289964    0.000000
      4          1           0        1.345394    2.367158    0.000000
      5          1           0        2.114655    0.684516    0.000000
      6          6           0       -0.148061   -0.747157    0.000000
      7          1           0        0.814052   -1.308816    0.000000
      8          8           0       -1.215822   -1.327353    0.000000
 ---------------------------------------------------------------------

 SCF Done:  E(RB3LYP) =  -191.920022614     A.U. after    1 cycles

 The electronic state is 1-A'.
 Alpha  occ. eigenvalues --  -19.14796 -10.27776 -10.22158 -10.21110  -1.04246
 Alpha  occ. eigenvalues --   -0.80407  -0.64950  -0.57507  -0.47816  -0.47590
 Alpha  occ. eigenvalues --   -0.41905  -0.39778  -0.39571  -0.29352  -0.25710
 Alpha virt. eigenvalues --   -0.06495   0.05787   0.10610   0.11075   0.15290
 Alpha virt. eigenvalues --    0.18579   0.26350   0.31123   0.35313   0.50364
 Alpha virt. eigenvalues --    0.51134   0.55817   0.58221   0.61496   0.63324

 Mulliken charges:
               1
     1  C   -0.098303
     2  H    0.158757
     3  C   -0.322401
     4  H    0.168881
     5  H    0.163086
     6  C    0.230438
     7  H    0.102026
     8  O   -0.402485
 Sum of Mulliken charges =   0.00000

 Dipole moment (field-independent basis, Debye):
    X=              2.3793    Y=              2.0803    Z=              0.0000  Tot=              3.1605
 Quadrupole moment (field-independent basis, Debye-Ang):
   XX=            -24.0632   YY=            -23.6779   ZZ=            -24.3100
   XY=             -2.4900   XZ=              0.0000   YZ=              0.0000

  Exact polarizability:  44.993  11.432  41.654   0.000   0.000  13.939
 Approx polarizability:  78.817  26.585  60.416   0.000   0.000  19.621

 ESP charges:
               1
     1  C   -0.158126
     2  H    0.128060
     3  C   -0.267814
     4  H    0.154219
     5  H    0.137475
     6  C    0.483368
     7  H   -0.031754
     8  O   -0.445428
 Sum of ESP charges =   0.00000

 Summary of Natural Population Analysis:

                                       Natural Population
                Natural  -----------------------------------------------
    Atom  No    Charge         Core      Valence    Rydberg      Total
 -----------------------------------------------------------------------
      C    1   -0.33017      1.99906     4.31538    0.01573     6.33017
      H    2    0.24469      0.00000     0.75384    0.00147     0.75531
      C    3   -0.34950      1.99916     4.33939    0.01094     6.34950
      H    4    0.22943      0.00000     0.76997    0.00060     0.77057
      H    5    0.21733      0.00000     0.78135    0.00132     0.78267
      C    6    0.36632      1.99945     3.60256    0.03168     5.63368
      H    7    0.13809      0.00000     0.85853    0.00338     0.86191
      O    8   -0.51619      1.99982     6.49649    0.01988     8.51619
 =======================================================================
   * Total *    0.00000      7.99749    21.91751    0.08500    30.00000

                      1                      2                      3
                     A"                     A'                     A'
 Frequencies --    173.4676               323.0045               573.6874
 Red. masses --      3.4644                 2.7041                 4.8985
 Frc consts  --      0.0614                 0.1662                 0.9499
 IR Inten    --      3.9634                 9.3956                 5.8623

                      4                      5                      6
                     A"                     A'                     A"
 Frequencies --    611.0533               930.5182               991.7364
 Red. masses --      1.1804                 1.5749                 1.3385
 Frc consts  --      0.2597                 0.8034                 0.7756
 IR Inten    --      7.3587                21.3209                36.1262

                      7                      8                      9
                     A"                     A"                     A'
 Frequencies --   1023.2099              1043.8525              1181.7300
 Red. masses --      1.6194                 1.1813                 2.0046
 Frc consts  --      0.9989                 0.7584                 1.6494
 IR Inten    --      8.3471                 7.7644                36.4562

                     10                     11                     12
                     A'                     A'                     A'
 Frequencies --   1309.6200              1411.3451              1476.0136
 Red. masses --      1.4867                 1.1948                 1.2243
 Frc consts  --      1.5024                 1.4022                 1.5716
 IR Inten    --      2.4683                 6.1249                 9.6587

                     13                     14                     15
                     A'                     A'                     A'
 Frequencies --   1702.5511              1806.1165              2899.0870
 Red. masses --      4.0454                 9.4196                 1.0841
 Frc consts  --      6.9090                18.1040                 5.3683
 IR Inten    --      2.3734               211.9212               106.2782

                     16                     17                     18
                     A'                     A'                     A'
 Frequencies --   3163.0789              3199.8504              3252.5208
 Red. masses --      1.0600                 1.0940                 1.1149
 Frc consts  --      6.2487                 6.6000                 6.9493
 IR Inten    --      6.2836                 2.7438                 7.7999

 - Thermochemistry -
 -------------------
 Temperature   298.150 Kelvin.  Pressure   1.00000 Atm.
 Atom     1 has atomic number  6 and mass  12.00000

 Molecular mass:    56.02621 amu.
 Principal axes and moments of inertia in atomic units:
                           1         2         3
     Eigenvalues --    37.64462 389.39237 427.03699
           X            0.62591   0.77990   0.00000
           Y            0.77990  -0.62591   0.00000
           Z            0.00000   0.00000   1.00000
 This molecule is an asymmetric top.
 Rotational symmetry number  1.
 Rotational temperatures (Kelvin)      2.30083     0.22243     0.20283
 Rotational constants (GHZ):          47.94155     4.63476     4.22619
 Zero-point vibrational energy     161929.2 (Joules/Mol)
                                   38.70200 (Kcal/Mol)
 Warning -- explicit consideration of   4 degrees of freedom as
           vibrations may cause significant error
 Vibrational temperatures:    249.58   464.73   825.41   879.17  1338.81
          (Kelvin)           1426.89  1472.17  1501.87  1700.24  1884.25
                             2030.61  2123.65  2449.59  2598.60  4171.13
                             4550.96  4603.87  4679.65

 Zero-point correction=                           0.061676 (Hartree/Particle)
 Thermal correction to Energy=                    0.066028
 Thermal correction to Enthalpy=                  0.066973
 Thermal correction to Gibbs Free Energy=         0.035397
 Sum of electronic and zero-point Energies=           -191.858347
 Sum of electronic and thermal Energies=              -191.853994
 Sum of electronic and thermal Enthalpies=            -191.853050
 Sum of electronic and thermal Free Energies=         -191.884626

                     E (Thermal)             CV                S
                      KCal/Mol        Cal/Mol-Kelvin    Cal/Mol-Kelvin
 Total                   41.433             13.698             66.457
 Electronic               0.000              0.000              0.000
 Translational            0.889              2.981             37.991
 Rotational               0.889              2.981             23.352
 Vibrational             39.656              7.737              5.114
 Vibration     1          0.627              1.875              2.398
 Vibration     2          0.708              1.629              1.295
 Vibration     3          0.930              1.088              0.497
 Vibration     4          0.970              1.008              0.431

 Optimization completed.
    -- Stationary point found.
 Normal termination of Gaussian 09 at Mon Apr  3 12:29:17 2017.
