 Gaussian 09, Revision D.01,
 Gaussian 09:  EM64L-G09RevD.01 24-Apr-2013

 ----------------------------------------------------------------------
 #p b3lyp/6-31g* empiricaldispersion=gd3bj opt freq=noraman pop=(chelpg
 ,npa)
 ----------------------------------------------------------------------

 -------------------
 Title Card Required
 -------------------
 Symbolic Z-matrix:
 Charge =  0 Multiplicity = 1

 SCF Done:  E(RB3LYP) =  -516.441927588     A.U. after   14 cycles
 SCF Done:  E(RB3LYP) =  -516.482670295     A.U. after   13 cycles
 SCF Done:  E(RB3LYP) =  -516.493159445     A.U. after   13 cycles
 SCF Done:  E(RB3LYP) =  -516.497528047     A.U. after   15 cycles
 SCF Done:  E(RB3LYP) =  -516.497896887     A.U. after   13 cycles
 SCF Done:  E(RB3LYP) =  -516.497949837     A.U. after   13 cycles
 SCF Done:  E(RB3LYP) =  -516.498156420     A.U. after   12 cycles
 SCF Done:  E(RB3LYP) =  -516.498273768     A.U. after   11 cycles
 SCF Done:  E(RB3LYP) =  -516.498396507     A.U. after   12 cycles
 SCF Done:  E(RB3LYP) =  -516.498392662     A.U. after   11 cycles
 SCF Done:  E(RB3LYP) =  -516.498406475     A.U. after   11 cycles
 SCF Done:  E(RB3LYP) =  -516.498409369     A.U. after    9 cycles
 SCF Done:  E(RB3LYP) =  -516.498410046     A.U. after    9 cycles
 SCF Done:  E(RB3LYP) =  -516.498410089     A.U. after    8 cycles
 Optimization completed.
    -- Stationary point found.
 Normal termination of Gaussian 09 at Mon Apr  3 12:30:20 2017.

 --------------------------------------------------------------------
 #P Geom=AllCheck Guess=TCheck SCRF=Check GenChk RB3LYP/6-31G(d) Freq
 --------------------------------------------------------------------

 Structure from the checkpoint file:  "g09.chk"
 -------------------
 Title Card Required
 -------------------
 Charge =  0 Multiplicity = 1

                         Standard orientation:
 ---------------------------------------------------------------------
 Center     Atomic      Atomic             Coordinates (Angstroms)
 Number     Number       Type             X           Y           Z
 ---------------------------------------------------------------------
      1          6           0       -2.436706   -0.508321   -0.000015
      2          1           0       -2.527242   -1.590692   -0.000018
      3          6           0       -3.500288    0.309460    0.000003
      4          1           0       -4.517115   -0.070189    0.000024
      5          1           0       -3.381080    1.390561   -0.000022
      6          6           0       -1.099316    0.051191   -0.000004
      7          1           0       -0.980374    1.141766    0.000003
      8          8           0       -0.089729   -0.664257   -0.000030
      9          5           0        1.491725    0.062949    0.000001
     10          9           0        2.003789   -0.421402    1.151969
     11          9           0        1.201656    1.399640    0.000162
     12          9           0        2.003764   -0.421140   -1.152092
 ---------------------------------------------------------------------

 SCF Done:  E(RB3LYP) =  -516.498410089     A.U. after    1 cycles

 The electronic state is 1-A.
 Alpha  occ. eigenvalues --  -24.65812 -24.64820 -24.64820 -19.22576 -10.33290
 Alpha  occ. eigenvalues --  -10.26522 -10.25227  -6.85230  -1.18578  -1.14457
 Alpha  occ. eigenvalues --   -1.14048  -1.11327  -0.85034  -0.70532  -0.62307
 Alpha  occ. eigenvalues --   -0.58213  -0.53203  -0.52000  -0.48896  -0.48892
 Alpha  occ. eigenvalues --   -0.47901  -0.45437  -0.44076  -0.40981  -0.38928
 Alpha  occ. eigenvalues --   -0.38544  -0.36846  -0.36620  -0.34301  -0.33846
 Alpha  occ. eigenvalues --   -0.33519
 Alpha virt. eigenvalues --   -0.12023   0.01069   0.07683   0.08127   0.13152
 Alpha virt. eigenvalues --    0.15167   0.18513   0.21293   0.26812   0.28429
 Alpha virt. eigenvalues --    0.28942   0.30436   0.32897   0.44106   0.47108

 Mulliken charges:
               1
     1  C   -0.100479
     2  H    0.188531
     3  C   -0.299510
     4  H    0.192660
     5  H    0.188113
     6  C    0.230179
     7  H    0.190085
     8  O   -0.398203
     9  B    0.677426
    10  F   -0.278801
    11  F   -0.311199
    12  F   -0.278804
 Sum of Mulliken charges =   0.00000

 Dipole moment (field-independent basis, Debye):
    X=             -7.7041    Y=              0.5460    Z=              0.0000  Tot=              7.7234
 Quadrupole moment (field-independent basis, Debye-Ang):
   XX=            -33.9395   YY=            -42.8679   ZZ=            -46.1094
   XY=             -0.3531   XZ=              0.0000   YZ=              0.0000

  Exact polarizability:  77.652  -7.847  42.591   0.000   0.000  25.366
 Approx polarizability: 109.747 -22.191  64.948  -0.001   0.000  35.764

 ESP charges:
               1
     1  C   -0.171414
     2  H    0.147975
     3  C   -0.199755
     4  H    0.164313
     5  H    0.141112
     6  C    0.475428
     7  H    0.042943
     8  O   -0.342950
     9  B    0.717574
    10  F   -0.317273
    11  F   -0.340675
    12  F   -0.317277
 Sum of ESP charges =   0.00000

 Summary of Natural Population Analysis:

                                       Natural Population
                Natural  -----------------------------------------------
    Atom  No    Charge         Core      Valence    Rydberg      Total
 -----------------------------------------------------------------------
      C    1   -0.33839      1.99909     4.32325    0.01605     6.33839
      H    2    0.26112      0.00000     0.73774    0.00114     0.73888
      C    3   -0.28857      1.99919     4.27872    0.01066     6.28857
      H    4    0.23944      0.00000     0.76005    0.00050     0.76056
      H    5    0.22781      0.00000     0.77123    0.00096     0.77219
      C    6    0.41073      1.99934     3.56191    0.02802     5.58927
      H    7    0.20415      0.00000     0.79279    0.00306     0.79585
      O    8   -0.52523      1.99973     6.51129    0.01421     8.52523
      B    9    1.39626      1.99989     1.55021    0.05364     3.60374
      F   10   -0.52336      1.99995     7.51542    0.00799     9.52336
      F   11   -0.54060      1.99995     7.53321    0.00744     9.54060
      F   12   -0.52336      1.99995     7.51542    0.00799     9.52336
 =======================================================================
   * Total *    0.00000     15.99709    45.85126    0.15166    62.00000

                      1                      2                      3
                      A                      A                      A
 Frequencies --     39.7942               129.3573               130.0493
 Red. masses --      5.4602                 2.0544                 5.2663
 Frc consts  --      0.0051                 0.0203                 0.0525
 IR Inten    --      1.1560                 1.5508                 0.9718

                      4                      5                      6
                      A                      A                      A
 Frequencies --    172.5671               205.7174               290.5661
 Red. masses --      3.5247                 8.5333                 6.9177
 Frc consts  --      0.0618                 0.2128                 0.3441
 IR Inten    --      2.2421                44.6217                 3.2472

                      7                      8                      9
                      A                      A                      A
 Frequencies --    324.6766               405.3518               491.8944
 Red. masses --     11.7675                 4.2961                14.1601
 Frc consts  --      0.7309                 0.4159                 2.0187
 IR Inten    --      0.1727                28.7313                 9.2642

                     10                     11                     12
                      A                      A                      A
 Frequencies --    507.6085               593.5558               629.3136
 Red. masses --     10.0388                 9.8821                 6.7115
 Frc consts  --      1.5240                 2.0513                 1.5660
 IR Inten    --     12.5856               491.0304                 0.7445

                     13                     14                     15
                      A                      A                      A
 Frequencies --    634.8202               845.7878               961.6972
 Red. masses --      1.2567                16.1896                 1.4755
 Frc consts  --      0.2984                 6.8235                 0.8040
 IR Inten    --     10.7715               156.5305                23.2856

                     16                     17                     18
                      A                      A                      A
 Frequencies --   1022.1843              1027.7840              1075.2766
 Red. masses --      1.2104                 1.3523                 1.4634
 Frc consts  --      0.7451                 0.8417                 0.9969
 IR Inten    --     46.8952                 0.0686                 4.7451

                     19                     20                     21
                      A                      A                      A
 Frequencies --   1219.4932              1305.1321              1320.5608
 Red. masses --      1.9668                 5.4453                 1.7557
 Frc consts  --      1.7233                 5.4649                 1.8039
 IR Inten    --     97.7511               250.8394                36.3080

                     22                     23                     24
                      A                      A                      A
 Frequencies --   1356.2195              1398.0440              1480.0692
 Red. masses --     12.1108                 1.2478                 1.2898
 Frc consts  --     13.1245                 1.4369                 1.6647
 IR Inten    --    329.0248                17.2489                 4.7049

                     25                     26                     27
                      A                      A                      A
 Frequencies --   1690.2075              1732.7530              3110.0815
 Red. masses --      4.2754                 6.9827                 1.0898
 Frc consts  --      7.1963                12.3523                 6.2105
 IR Inten    --     13.2508               339.8412                 6.1153

                     28                     29                     30
                      A                      A                      A
 Frequencies --   3175.5005              3218.7246              3266.8805
 Red. masses --      1.0606                 1.0943                 1.1162
 Frc consts  --      6.3010                 6.6795                 7.0190
 IR Inten    --      1.6833                 0.1089                 1.5621

 - Thermochemistry -
 -------------------
 Temperature   298.150 Kelvin.  Pressure   1.00000 Atm.
 Atom     1 has atomic number  6 and mass  12.00000

 Molecular mass:   124.03073 amu.
 Principal axes and moments of inertia in atomic units:
                           1         2         3
     Eigenvalues --   398.469771873.755701912.05955
           X            0.99999  -0.00386   0.00000
           Y            0.00386   0.99999   0.00000
           Z            0.00000   0.00000   1.00000
 This molecule is an asymmetric top.
 Rotational symmetry number  1.
 Rotational temperatures (Kelvin)      0.21737     0.04622     0.04530
 Rotational constants (GHZ):           4.52918     0.96317     0.94387
 Zero-point vibrational energy     201939.6 (Joules/Mol)
                                   48.26473 (Kcal/Mol)
 Warning -- explicit consideration of  11 degrees of freedom as
           vibrations may cause significant error
 Vibrational temperatures:     57.25   186.12   187.11   248.29   295.98
          (Kelvin)            418.06   467.14   583.21   707.73   730.33
                              853.99   905.44   913.36  1216.90  1383.67
                             1470.69  1478.75  1547.08  1754.58  1877.79
                             1899.99  1951.29  2011.47  2129.49  2431.83
                             2493.04  4474.71  4568.83  4631.02  4700.31

 Zero-point correction=                           0.076915 (Hartree/Particle)
 Thermal correction to Energy=                    0.085410
 Thermal correction to Enthalpy=                  0.086354
 Thermal correction to Gibbs Free Energy=         0.042778
 Sum of electronic and zero-point Energies=           -516.421495
 Sum of electronic and thermal Energies=              -516.413000
 Sum of electronic and thermal Enthalpies=            -516.412056
 Sum of electronic and thermal Free Energies=         -516.455632

                     E (Thermal)             CV                S
                      KCal/Mol        Cal/Mol-Kelvin    Cal/Mol-Kelvin
 Total                   53.596             28.609             91.713
 Electronic               0.000              0.000              0.000
 Translational            0.889              2.981             40.360
 Rotational               0.889              2.981             28.747
 Vibrational             51.818             22.647             22.606
 Vibration     1          0.594              1.981              5.269
 Vibration     2          0.612              1.924              2.956
 Vibration     3          0.612              1.923              2.945
 Vibration     4          0.626              1.876              2.407
 Vibration     5          0.640              1.832              2.081
 Vibration     6          0.687              1.691              1.471
 Vibration     7          0.709              1.626              1.286
 Vibration     8          0.770              1.459              0.943
 Vibration     9          0.848              1.268              0.679
 Vibration    10          0.863              1.233              0.639
 Vibration    11          0.951              1.046              0.461

 Optimization completed.
    -- Stationary point found.
 Normal termination of Gaussian 09 at Mon Apr  3 12:30:53 2017.
