 Gaussian 09, Revision D.01,
 Gaussian 09:  EM64L-G09RevD.01 24-Apr-2013

 ----------------------------------------------------------------------
 #p b3lyp/6-31g* empiricaldispersion=gd3bj opt freq=noraman pop=(chelpg
 ,npa)
 ----------------------------------------------------------------------

 -------------------
 Title Card Required
 -------------------
 Symbolic Z-matrix:
 Charge =  0 Multiplicity = 1

 SCF Done:  E(RB3LYP) =  -155.987996974     A.U. after   12 cycles
 SCF Done:  E(RB3LYP) =  -155.996415826     A.U. after   12 cycles
 SCF Done:  E(RB3LYP) =  -155.996923714     A.U. after   11 cycles
 SCF Done:  E(RB3LYP) =  -155.997071154     A.U. after    9 cycles
 SCF Done:  E(RB3LYP) =  -155.997075462     A.U. after    8 cycles
 Optimization completed.
    -- Stationary point found.
 Normal termination of Gaussian 09 at Mon Apr  3 11:54:20 2017.

 --------------------------------------------------------------------
 #P Geom=AllCheck Guess=TCheck SCRF=Check GenChk RB3LYP/6-31G(d) Freq
 --------------------------------------------------------------------

 Structure from the checkpoint file:  "g09.chk"
 -------------------
 Title Card Required
 -------------------
 Charge =  0 Multiplicity = 1

                         Standard orientation:
 ---------------------------------------------------------------------
 Center     Atomic      Atomic             Coordinates (Angstroms)
 Number     Number       Type             X           Y           Z
 ---------------------------------------------------------------------
      1          6           0       -0.895775    0.238931    0.000000
      2          1           0       -1.959063    0.001897    0.000000
      3          6           0       -0.539600    1.530089    0.000000
      4          1           0       -1.285313    2.319037    0.000000
      5          1           0        0.500061    1.847488    0.000000
      6          6           0        0.000000   -0.927041    0.000000
      7          1           0       -0.503011   -1.893355    0.000000
      8          6           0        1.339336   -0.915719    0.000000
      9          1           0        1.914164    0.006947    0.000000
     10          1           0        1.909397   -1.839576    0.000000
 ---------------------------------------------------------------------

 SCF Done:  E(RB3LYP) =  -155.997075462     A.U. after    1 cycles

 The electronic state is 1-A'.
 Alpha  occ. eigenvalues --  -10.19175 -10.19144 -10.18259 -10.18259  -0.79865
 Alpha  occ. eigenvalues --   -0.72462  -0.61825  -0.52651  -0.48796  -0.43658
 Alpha  occ. eigenvalues --   -0.41603  -0.35983  -0.34804  -0.31730  -0.22722
 Alpha virt. eigenvalues --   -0.03005   0.09661   0.10113   0.11452   0.15342
 Alpha virt. eigenvalues --    0.19231   0.20258   0.21001   0.30614   0.34094
 Alpha virt. eigenvalues --    0.43335   0.46744   0.52735   0.53286   0.58705

 Mulliken charges:
               1
     1  C   -0.077312
     2  H    0.126935
     3  C   -0.334538
     4  H    0.144267
     5  H    0.140661
     6  C   -0.077336
     7  H    0.126933
     8  C   -0.334519
     9  H    0.140644
    10  H    0.144265
 Sum of Mulliken charges =   0.00000

 Dipole moment (field-independent basis, Debye):
    X=             -0.0689    Y=             -0.0529    Z=              0.0000  Tot=              0.0869
 Quadrupole moment (field-independent basis, Debye-Ang):
   XX=            -22.5672   YY=            -22.6413   ZZ=            -27.8954
   XY=              0.1384   XZ=              0.0000   YZ=              0.0000

  Exact polarizability:  51.884  -7.909  56.104   0.000   0.000  15.434
 Approx polarizability:  78.890  -9.573  83.995   0.000   0.000  21.401

 ESP charges:
               1
     1  C   -0.023006
     2  H    0.078445
     3  C   -0.337773
     4  H    0.131613
     5  H    0.146924
     6  C   -0.008676
     7  H    0.074832
     8  C   -0.342916
     9  H    0.149482
    10  H    0.131074
 Sum of ESP charges =   0.00000

 Summary of Natural Population Analysis:

                                       Natural Population
                Natural  -----------------------------------------------
    Atom  No    Charge         Core      Valence    Rydberg      Total
 -----------------------------------------------------------------------
      C    1   -0.25759      1.99911     4.24328    0.01520     6.25759
      H    2    0.22810      0.00000     0.77079    0.00111     0.77190
      C    3   -0.39724      1.99914     4.38748    0.01061     6.39724
      H    4    0.21891      0.00000     0.78045    0.00064     0.78109
      H    5    0.20782      0.00000     0.79137    0.00082     0.79218
      C    6   -0.25759      1.99911     4.24329    0.01520     6.25759
      H    7    0.22810      0.00000     0.77079    0.00111     0.77190
      C    8   -0.39723      1.99914     4.38748    0.01061     6.39723
      H    9    0.20781      0.00000     0.79137    0.00082     0.79219
      H   10    0.21891      0.00000     0.78045    0.00064     0.78109
 =======================================================================
   * Total *    0.00000      7.99650    21.94675    0.05675    30.00000

 ******    1 imaginary frequencies (negative Signs) ******

                      1                      2                      3
                     A"                     A'                     A"
 Frequencies --   -129.3251               301.2714               518.1943
 Red. masses --      1.4351                 2.5740                 1.1861
 Frc consts  --      0.0141                 0.1376                 0.1877
 IR Inten    --      0.0000                 0.0153                11.4072

                      4                      5                      6
                     A'                     A"                     A'
 Frequencies --    569.5022               747.4304               891.4576
 Red. masses --      2.0819                 1.7459                 2.1015
 Frc consts  --      0.3978                 0.5747                 0.9840
 IR Inten    --      4.9488                 0.0001                 0.0518

                      7                      8                      9
                     A"                     A"                     A"
 Frequencies --    926.5393               928.8424              1037.6450
 Red. masses --      1.4196                 1.3667                 1.0923
 Frc consts  --      0.7180                 0.6947                 0.6929
 IR Inten    --      3.5036                66.3416                23.0061

                     10                     11                     12
                     A"                     A'                     A'
 Frequencies --   1039.5331              1075.2560              1122.3570
 Red. masses --      1.1194                 1.4492                 1.6079
 Frc consts  --      0.7127                 0.9872                 1.1934
 IR Inten    --      2.8758                 0.0117                 9.9294

                     13                     14                     15
                     A'                     A'                     A'
 Frequencies --   1331.2776              1374.6693              1461.4906
 Red. masses --      1.2787                 1.2689                 1.1539
 Frc consts  --      1.3353                 1.4128                 1.4521
 IR Inten    --      0.2788                 0.4752                 2.9683

                     16                     17                     18
                     A'                     A'                     A'
 Frequencies --   1490.0117              1693.0099              1726.2965
 Red. masses --      1.3001                 4.2927                 3.6629
 Frc consts  --      1.7006                 7.2493                 6.4315
 IR Inten    --      6.9785                 1.7638                 0.8192

                     19                     20                     21
                     A'                     A'                     A'
 Frequencies --   3150.6601              3164.5004              3167.4448
 Red. masses --      1.0839                 1.0704                 1.0639
 Frc consts  --      6.3394                 6.3155                 6.2887
 IR Inten    --     12.4724                39.5944                 4.1367

                     22                     23                     24
                     A'                     A'                     A'
 Frequencies --   3174.9833              3246.8378              3250.2864
 Red. masses --      1.0789                 1.1156                 1.1161
 Frc consts  --      6.4077                 6.9294                 6.9469
 IR Inten    --      0.7230                19.3978                11.5036

 - Thermochemistry -
 -------------------
 Temperature   298.150 Kelvin.  Pressure   1.00000 Atm.
 Atom     1 has atomic number  6 and mass  12.00000

 Molecular mass:    54.04695 amu.
 Principal axes and moments of inertia in atomic units:
                           1         2         3
     Eigenvalues --    84.23247 319.59788 403.83036
           X           -0.60922   0.79300   0.00000
           Y            0.79300   0.60922   0.00000
           Z            0.00000   0.00000   1.00000
 This molecule is an asymmetric top.
 Rotational symmetry number  1.
 Rotational temperatures (Kelvin)      1.02827     0.27101     0.21448
 Rotational constants (GHZ):          21.42572     5.64691     4.46906
    1 imaginary frequencies ignored.
 Zero-point vibrational energy     223638.9 (Joules/Mol)
                                   53.45097 (Kcal/Mol)
 Warning -- explicit consideration of   3 degrees of freedom as
           vibrations may cause significant error
 Vibrational temperatures:    433.46   745.57   819.39  1075.38  1282.61
          (Kelvin)           1333.08  1336.40  1492.94  1495.65  1547.05
                             1614.82  1915.41  1977.84  2102.76  2143.79
                             2435.86  2483.75  4533.09  4553.00  4557.24
                             4568.09  4671.47  4676.43

 Zero-point correction=                           0.085180 (Hartree/Particle)
 Thermal correction to Energy=                    0.089214
 Thermal correction to Enthalpy=                  0.090158
 Thermal correction to Gibbs Free Energy=         0.059118
 Sum of electronic and zero-point Energies=           -155.911896
 Sum of electronic and thermal Energies=              -155.907861
 Sum of electronic and thermal Enthalpies=            -155.906917
 Sum of electronic and thermal Free Energies=         -155.937957

                     E (Thermal)             CV                S
                      KCal/Mol        Cal/Mol-Kelvin    Cal/Mol-Kelvin
 Total                   55.983             13.840             65.329
 Electronic               0.000              0.000              0.000
 Translational            0.889              2.981             37.884
 Rotational               0.889              2.981             23.901
 Vibrational             54.205              7.878              3.544
 Vibration     1          0.693              1.671              1.410
 Vibration     2          0.873              1.210              0.614
 Vibration     3          0.926              1.097              0.505

 Optimization completed.
    -- Stationary point found.
 Normal termination of Gaussian 09 at Mon Apr  3 11:54:36 2017.
