 Gaussian 09, Revision D.01,
 Gaussian 09:  EM64L-G09RevD.01 24-Apr-2013

 ----------------------------------------------------------------------
 #p b3lyp/6-31g* empiricaldispersion=gd3bj opt=(ts,noeigentest,calcfc)
 freq=noraman pop=(chelpg,npa)
 ----------------------------------------------------------------------

 -------------------
 Title Card Required
 -------------------
 Symbolic Z-matrix:
 Charge =  0 Multiplicity = 1

 SCF Done:  E(RB3LYP) =  -234.566648416     A.U. after   14 cycles
 SCF Done:  E(RB3LYP) =  -234.568893890     A.U. after   14 cycles
 SCF Done:  E(RB3LYP) =  -234.569132171     A.U. after   13 cycles
 SCF Done:  E(RB3LYP) =  -234.568910152     A.U. after   13 cycles
 SCF Done:  E(RB3LYP) =  -234.565805847     A.U. after   14 cycles
 SCF Done:  E(RB3LYP) =  -234.568687744     A.U. after   13 cycles
 SCF Done:  E(RB3LYP) =  -234.568726031     A.U. after   15 cycles
 SCF Done:  E(RB3LYP) =  -234.569316721     A.U. after   13 cycles
 SCF Done:  E(RB3LYP) =  -234.568024400     A.U. after   14 cycles
 SCF Done:  E(RB3LYP) =  -234.569150734     A.U. after   13 cycles
 SCF Done:  E(RB3LYP) =  -234.569325064     A.U. after   11 cycles
 SCF Done:  E(RB3LYP) =  -234.569325914     A.U. after    8 cycles
 SCF Done:  E(RB3LYP) =  -234.565931124     A.U. after   13 cycles
 SCF Done:  E(RB3LYP) =  -234.568524192     A.U. after   13 cycles
 SCF Done:  E(RB3LYP) =  -234.566984674     A.U. after   13 cycles
 SCF Done:  E(RB3LYP) =  -234.569237223     A.U. after   13 cycles
 SCF Done:  E(RB3LYP) =  -234.569320955     A.U. after   11 cycles
 SCF Done:  E(RB3LYP) =  -234.569326253     A.U. after   10 cycles
 SCF Done:  E(RB3LYP) =  -234.569326534     A.U. after    8 cycles
 Optimization completed.
    -- Stationary point found.
 Normal termination of Gaussian 09 at Mon Apr  3 12:23:13 2017.

 --------------------------------------------------------------------
 #P Geom=AllCheck Guess=TCheck SCRF=Check GenChk RB3LYP/6-31G(d) Freq
 --------------------------------------------------------------------

 Structure from the checkpoint file:  "g09.chk"
 -------------------
 Title Card Required
 -------------------
 Charge =  0 Multiplicity = 1

                         Standard orientation:
 ---------------------------------------------------------------------
 Center     Atomic      Atomic             Coordinates (Angstroms)
 Number     Number       Type             X           Y           Z
 ---------------------------------------------------------------------
      1          6           0       -1.574865   -0.691796   -0.228514
      2          1           0       -2.071147   -1.236181    0.569293
      3          1           0       -1.460866   -1.235531   -1.159016
      4          6           0       -1.574537    0.691828   -0.228338
      5          1           0       -1.460449    1.235799   -1.158679
      6          1           0       -2.070476    1.236155    0.569716
      7          6           0        1.317511    0.703583   -0.293368
      8          1           0        1.857160    1.214004   -1.089216
      9          6           0        0.449501    1.434270    0.494004
     10          1           0        0.392486    2.514250    0.386691
     11          1           0        0.127578    1.058510    1.458118
     12          6           0        1.317525   -0.703710   -0.293424
     13          1           0        1.856871   -1.214066   -1.089513
     14          6           0        0.449671   -1.434273    0.494201
     15          1           0        0.127614   -1.058094    1.458112
     16          1           0        0.392398   -2.514259    0.387126
 ---------------------------------------------------------------------

 SCF Done:  E(RB3LYP) =  -234.569326534     A.U. after    1 cycles

 The electronic state is 1-A.
 Alpha  occ. eigenvalues --  -10.18501 -10.18500 -10.18035 -10.17975 -10.17541
 Alpha  occ. eigenvalues --  -10.17491  -0.80094  -0.73956  -0.71115  -0.61728
 Alpha  occ. eigenvalues --   -0.57572  -0.51505  -0.48565  -0.45882  -0.42203
 Alpha  occ. eigenvalues --   -0.40147  -0.40015  -0.36134  -0.35009  -0.33759
 Alpha  occ. eigenvalues --   -0.33550  -0.22101  -0.21895
 Alpha virt. eigenvalues --   -0.00871   0.02059   0.09609   0.10974   0.12538
 Alpha virt. eigenvalues --    0.14407   0.14652   0.15220   0.17293   0.20338
 Alpha virt. eigenvalues --    0.20560   0.24009   0.25029   0.29417   0.32530

 Mulliken charges:
               1
     1  C   -0.297539
     2  H    0.145204
     3  H    0.152120
     4  C   -0.297508
     5  H    0.152152
     6  H    0.145209
     7  C   -0.079085
     8  H    0.120354
     9  C   -0.337357
    10  H    0.140465
    11  H    0.155773
    12  C   -0.079065
    13  H    0.120361
    14  C   -0.337301
    15  H    0.155748
    16  H    0.140468
 Sum of Mulliken charges =   0.00000

 Dipole moment (field-independent basis, Debye):
    X=             -0.3864    Y=              0.0003    Z=              0.0072  Tot=              0.3865
 Quadrupole moment (field-independent basis, Debye-Ang):
   XX=            -40.7478   YY=            -35.6099   ZZ=            -36.6751
   XY=              0.0007   XZ=             -2.6207   YZ=              0.0004

  Exact polarizability:  75.493   0.004  80.561  -6.877   0.000  50.593
 Approx polarizability: 129.296   0.010 137.473 -12.657  -0.002  74.453

 ESP charges:
               1
     1  C   -0.137240
     2  H    0.061149
     3  H    0.075466
     4  C   -0.137024
     5  H    0.075398
     6  H    0.061101
     7  C   -0.141249
     8  H    0.102236
     9  C   -0.103439
    10  H    0.055946
    11  H    0.087033
    12  C   -0.140933
    13  H    0.102251
    14  C   -0.104109
    15  H    0.087291
    16  H    0.056125
 Sum of ESP charges =   0.00000

 Summary of Natural Population Analysis:

                                       Natural Population
                Natural  -----------------------------------------------
    Atom  No    Charge         Core      Valence    Rydberg      Total
 -----------------------------------------------------------------------
      C    1   -0.46312      1.99915     4.44862    0.01535     6.46312
      H    2    0.22869      0.00000     0.77053    0.00078     0.77131
      H    3    0.23415      0.00000     0.76511    0.00075     0.76585
      C    4   -0.46313      1.99915     4.44863    0.01535     6.46313
      H    5    0.23417      0.00000     0.76508    0.00075     0.76583
      H    6    0.22870      0.00000     0.77053    0.00078     0.77130
      C    7   -0.25845      1.99904     4.24481    0.01460     6.25845
      H    8    0.22808      0.00000     0.77089    0.00103     0.77192
      C    9   -0.42805      1.99920     4.41474    0.01411     6.42805
      H   10    0.23137      0.00000     0.76796    0.00066     0.76863
      H   11    0.22731      0.00000     0.77181    0.00088     0.77269
      C   12   -0.25850      1.99904     4.24486    0.01460     6.25850
      H   13    0.22809      0.00000     0.77087    0.00103     0.77191
      C   14   -0.42798      1.99920     4.41467    0.01411     6.42798
      H   15    0.22729      0.00000     0.77183    0.00088     0.77271
      H   16    0.23137      0.00000     0.76797    0.00066     0.76863
 =======================================================================
   * Total *    0.00000     11.99478    33.90890    0.09632    46.00000

 ******    1 imaginary frequencies (negative Signs) ******

                      1                      2                      3
                      A                      A                      A
 Frequencies --   -508.9964               133.5600               216.0968
 Red. masses --      8.2690                 2.0834                 4.2204
 Frc consts  --      1.2622                 0.0219                 0.1161
 IR Inten    --      6.2951                 0.5813                 1.1275

                      4                      5                      6
                      A                      A                      A
 Frequencies --    284.2211               381.1216               404.1039
 Red. masses --      2.7383                 2.5700                 2.7912
 Frc consts  --      0.1303                 0.2199                 0.2686
 IR Inten    --      0.3533                 0.1085                 2.4963

                      7                      8                      9
                      A                      A                      A
 Frequencies --    489.6758               591.1661               622.4118
 Red. masses --      2.5588                 2.0008                 1.0908
 Frc consts  --      0.3615                 0.4120                 0.2490
 IR Inten    --      0.4720                 0.0062                 1.5737

                     10                     11                     12
                      A                      A                      A
 Frequencies --    694.1928               781.3743               816.1935
 Red. masses --      1.2076                 1.5119                 1.1107
 Frc consts  --      0.3429                 0.5439                 0.4359
 IR Inten    --     24.6715                 0.5877                 0.2367

                     13                     14                     15
                      A                      A                      A
 Frequencies --    853.8190               908.2244               952.5153
 Red. masses --      1.0304                 1.1555                 1.3751
 Frc consts  --      0.4426                 0.5616                 0.7350
 IR Inten    --      0.2670                12.5951                16.8512

                     16                     17                     18
                      A                      A                      A
 Frequencies --    971.9633               982.5382               995.1686
 Red. masses --      1.2786                 1.3368                 1.1193
 Frc consts  --      0.7117                 0.7603                 0.6531
 IR Inten    --      0.0823                 3.0566                 1.2987

                     19                     20                     21
                      A                      A                      A
 Frequencies --   1009.4328              1016.3828              1111.6352
 Red. masses --      1.1845                 1.1204                 1.6497
 Frc consts  --      0.7111                 0.6819                 1.2011
 IR Inten    --     29.9665                 5.6648                 1.5032

                     22                     23                     24
                      A                      A                      A
 Frequencies --   1114.9872              1255.4179              1265.3387
 Red. masses --      1.5341                 1.4119                 1.7785
 Frc consts  --      1.1237                 1.3110                 1.6777
 IR Inten    --      0.5904                 0.0377                 0.1137

                     25                     26                     27
                      A                      A                      A
 Frequencies --   1283.2417              1329.7810              1454.4185
 Red. masses --      1.4599                 1.5048                 1.2142
 Frc consts  --      1.4164                 1.5678                 1.5133
 IR Inten    --      0.2606                 1.5186                 0.8640

                     28                     29                     30
                      A                      A                      A
 Frequencies --   1491.8939              1514.3580              1569.6619
 Red. masses --      1.1085                 1.6308                 1.4514
 Frc consts  --      1.4536                 2.2034                 2.1069
 IR Inten    --      1.2222                 7.0180                 2.4861

                     31                     32                     33
                      A                      A                      A
 Frequencies --   1617.1473              1621.0821              3156.0310
 Red. masses --      2.5238                 2.4232                 1.0812
 Frc consts  --      3.8887                 3.7518                 6.3453
 IR Inten    --      1.3695                 0.6123                 4.0912

                     34                     35                     36
                      A                      A                      A
 Frequencies --   3164.8076              3165.9784              3172.9997
 Red. masses --      1.0536                 1.0639                 1.0617
 Frc consts  --      6.2174                 6.2830                 6.2981
 IR Inten    --      2.8632                22.8240                25.9798

                     37                     38                     39
                      A                      A                      A
 Frequencies --   3177.2398              3180.4339              3242.2160
 Red. masses --      1.0662                 1.0842                 1.1144
 Frc consts  --      6.3415                 6.4615                 6.9018
 IR Inten    --      9.8055                 8.4279                 1.2461

                     40                     41                     42
                      A                      A                      A
 Frequencies --   3247.5312              3249.8056              3266.6283
 Red. masses --      1.1146                 1.1143                 1.1168
 Frc consts  --      6.9256                 6.9335                 7.0217
 IR Inten    --      8.1299                15.9803                21.7600

 - Thermochemistry -
 -------------------
 Temperature   298.150 Kelvin.  Pressure   1.00000 Atm.
 Atom     1 has atomic number  6 and mass  12.00000

 Molecular mass:    82.07825 amu.
 Principal axes and moments of inertia in atomic units:
                           1         2         3
     Eigenvalues --   415.43469 520.35546 796.76870
           X            0.99976   0.00005  -0.02187
           Y           -0.00005   1.00000   0.00001
           Z            0.02187  -0.00001   0.99976
 This molecule is an asymmetric top.
 Rotational symmetry number  1.
 Rotational temperatures (Kelvin)      0.20849     0.16645     0.10871
 Rotational constants (GHZ):           4.34422     3.46829     2.26508
    1 imaginary frequencies ignored.
 Zero-point vibrational energy     369387.7 (Joules/Mol)
                                   88.28577 (Kcal/Mol)
 Warning -- explicit consideration of   7 degrees of freedom as
           vibrations may cause significant error
 Vibrational temperatures:    192.16   310.91   408.93   548.35   581.41
          (Kelvin)            704.53   850.56   895.51   998.79  1124.22
                             1174.32  1228.45  1306.73  1370.46  1398.44
                             1413.65  1431.82  1452.35  1462.35  1599.39
                             1604.22  1806.26  1820.54  1846.30  1913.26
                             2092.58  2146.50  2178.82  2258.39  2326.71
                             2332.37  4540.82  4553.45  4555.13  4565.23
                             4571.33  4575.93  4664.82  4672.47  4675.74
                             4699.94

 Zero-point correction=                           0.140692 (Hartree/Particle)
 Thermal correction to Energy=                    0.147094
 Thermal correction to Enthalpy=                  0.148039
 Thermal correction to Gibbs Free Energy=         0.111152
 Sum of electronic and zero-point Energies=           -234.428634
 Sum of electronic and thermal Energies=              -234.422232
 Sum of electronic and thermal Enthalpies=            -234.421288
 Sum of electronic and thermal Free Energies=         -234.458175

                     E (Thermal)             CV                S
                      KCal/Mol        Cal/Mol-Kelvin    Cal/Mol-Kelvin
 Total                   92.303             24.789             77.635
 Electronic               0.000              0.000              0.000
 Translational            0.889              2.981             39.129
 Rotational               0.889              2.981             26.646
 Vibrational             90.526             18.827             11.860
 Vibration     1          0.613              1.920              2.894
 Vibration     2          0.645              1.817              1.992
 Vibration     3          0.683              1.703              1.508
 Vibration     4          0.751              1.510              1.035
 Vibration     5          0.769              1.461              0.948
 Vibration     6          0.846              1.273              0.684
 Vibration     7          0.949              1.051              0.465

 Optimization completed.
    -- Stationary point found.
 Normal termination of Gaussian 09 at Mon Apr  3 12:23:53 2017.
