 Gaussian 09, Revision D.01,
 Gaussian 09:  EM64L-G09RevD.01 24-Apr-2013

 ----------------------------------------------------------------------
 #p b3lyp/6-31g* empiricaldispersion=gd3bj opt=(ts,calcfc,noeigentest,m
 axstep=5) freq=noraman pop=(chelpg,npa)
 ----------------------------------------------------------------------

 -------------------
 Title Card Required
 -------------------
 Symbolic Z-matrix:
 Charge =  0 Multiplicity = 1

 SCF Done:  E(RB3LYP) =  -672.437303718     A.U. after   14 cycles
 SCF Done:  E(RB3LYP) =  -672.444200913     A.U. after   11 cycles
 SCF Done:  E(RB3LYP) =  -672.450932240     A.U. after   11 cycles
 SCF Done:  E(RB3LYP) =  -672.457135258     A.U. after   11 cycles
 SCF Done:  E(RB3LYP) =  -672.462751321     A.U. after   11 cycles
 SCF Done:  E(RB3LYP) =  -672.467732974     A.U. after   11 cycles
 SCF Done:  E(RB3LYP) =  -672.472054546     A.U. after   11 cycles
 SCF Done:  E(RB3LYP) =  -672.475706790     A.U. after   11 cycles
 SCF Done:  E(RB3LYP) =  -672.478704500     A.U. after   12 cycles
 SCF Done:  E(RB3LYP) =  -672.481084867     A.U. after   11 cycles
 SCF Done:  E(RB3LYP) =  -672.500331973     A.U. after   10 cycles
 SCF Done:  E(RB3LYP) =  -672.500300128     A.U. after   11 cycles
 SCF Done:  E(RB3LYP) =  -672.500332897     A.U. after   11 cycles
 SCF Done:  E(RB3LYP) =  -672.500333167     A.U. after    8 cycles
 SCF Done:  E(RB3LYP) =  -672.500333250     A.U. after    8 cycles
 SCF Done:  E(RB3LYP) =  -672.500333280     A.U. after    8 cycles
 SCF Done:  E(RB3LYP) =  -672.500290548     A.U. after   11 cycles
 SCF Done:  E(RB3LYP) =  -672.500333343     A.U. after   11 cycles
 SCF Done:  E(RB3LYP) =  -672.500333224     A.U. after    8 cycles
 Optimization completed.
    -- Stationary point found.
 Normal termination of Gaussian 09 at Tue Apr  4 15:11:31 2017.

 --------------------------------------------------------------------
 #P Geom=AllCheck Guess=TCheck SCRF=Check GenChk RB3LYP/6-31G(d) Freq
 --------------------------------------------------------------------

 Structure from the checkpoint file:  "g09.chk"
 -------------------
 Title Card Required
 -------------------
 Charge =  0 Multiplicity = 1

                         Standard orientation:
 ---------------------------------------------------------------------
 Center     Atomic      Atomic             Coordinates (Angstroms)
 Number     Number       Type             X           Y           Z
 ---------------------------------------------------------------------
      1          6           0        1.030347    1.438343    0.426443
      2          1           0        0.967103    1.788754    1.453284
      3          6           0        2.217987    1.594502   -0.302322
      4          1           0        2.177618    1.477542   -1.381121
      5          1           0        2.917767    2.355628    0.032460
      6          6           0        2.952675   -1.006393   -0.531425
      7          1           0        3.375316   -1.267902   -1.499566
      8          6           0        3.506637    0.081227    0.148172
      9          1           0        4.455134    0.475917   -0.206821
     10          1           0        3.363870    0.174960    1.220234
     11          6           0        1.724481   -1.600874   -0.180204
     12          1           0        1.263560   -2.274401   -0.898864
     13          6           0        0.992691   -1.224184    0.917479
     14          1           0        1.442482   -0.695025    1.749423
     15          1           0       -0.034042   -1.551885    1.048784
     16          6           0       -0.143291    0.886702   -0.139119
     17          1           0       -0.112096    0.499825   -1.161154
     18          8           0       -1.252711    0.868042    0.472003
     19          5           0       -2.407486   -0.083968   -0.091595
     20          9           0       -2.191954   -0.188764   -1.452893
     21          9           0       -2.173230   -1.282981    0.568133
     22          9           0       -3.573344    0.524652    0.250444
 ---------------------------------------------------------------------

 SCF Done:  E(RB3LYP) =  -672.500333224     A.U. after    1 cycles

 The electronic state is 1-A.
 Alpha  occ. eigenvalues --  -24.62521 -24.62483 -24.61586 -19.17800 -10.29640
 Alpha  occ. eigenvalues --  -10.25190 -10.24521 -10.24415 -10.23736 -10.22997
 Alpha  occ. eigenvalues --  -10.22984  -6.82215  -1.15474  -1.11145  -1.10873
 Alpha  occ. eigenvalues --   -1.06908  -0.86184  -0.81962  -0.77061  -0.69375
 Alpha  occ. eigenvalues --   -0.66923  -0.60093  -0.57159  -0.56057  -0.53555
 Alpha  occ. eigenvalues --   -0.50810  -0.49283  -0.48139  -0.46322  -0.46263
 Alpha  occ. eigenvalues --   -0.44925  -0.44736  -0.42548  -0.42019  -0.40249
 Alpha  occ. eigenvalues --   -0.39868  -0.38708  -0.37170  -0.36065  -0.35685
 Alpha  occ. eigenvalues --   -0.33610  -0.33274  -0.31694  -0.31377  -0.30515
 Alpha  occ. eigenvalues --   -0.25750
 Alpha virt. eigenvalues --   -0.10787  -0.04733   0.01551   0.06487   0.06791
 Alpha virt. eigenvalues --    0.07706   0.09908   0.10190   0.13033   0.14450
 Alpha virt. eigenvalues --    0.15255   0.17909   0.18718   0.20239   0.22241

 Mulliken charges:
               1
     1  C   -0.130023
     2  H    0.167802
     3  C   -0.338423
     4  H    0.185203
     5  H    0.192796
     6  C   -0.058040
     7  H    0.160131
     8  C   -0.354099
     9  H    0.175632
    10  H    0.186447
    11  C   -0.087481
    12  H    0.171408
    13  C   -0.344070
    14  H    0.172720
    15  H    0.235347
    16  C    0.211000
    17  H    0.173409
    18  O   -0.439497
    19  B    0.668408
    20  F   -0.333344
    21  F   -0.324271
    22  F   -0.291056
 Sum of Mulliken charges =   0.00000

 Dipole moment (field-independent basis, Debye):
    X=             10.4255    Y=              0.9980    Z=             -0.1256  Tot=             10.4739
 Quadrupole moment (field-independent basis, Debye-Ang):
   XX=            -74.0269   YY=            -66.3533   ZZ=            -66.1952
   XY=              2.9137   XZ=             -1.3197   YZ=              1.1630

  Exact polarizability: 132.106  -3.304  96.214  -9.896   4.819  72.750
 Approx polarizability: 215.603 -17.902 179.884 -29.514  11.423 118.384

 ESP charges:
               1
     1  C   -0.290815
     2  H    0.150737
     3  C    0.049579
     4  H    0.040728
     5  H    0.058728
     6  C   -0.128329
     7  H    0.125794
     8  C   -0.038767
     9  H    0.061054
    10  H    0.075171
    11  C   -0.055146
    12  H    0.103532
    13  C   -0.130268
    14  H    0.117707
    15  H    0.130220
    16  C    0.400061
    17  H    0.061883
    18  O   -0.396779
    19  B    0.718826
    20  F   -0.367923
    21  F   -0.353253
    22  F   -0.332740
 Sum of ESP charges =   0.00000

 Summary of Natural Population Analysis:

                                       Natural Population
                Natural  -----------------------------------------------
    Atom  No    Charge         Core      Valence    Rydberg      Total
 -----------------------------------------------------------------------
      C    1   -0.32190      1.99904     4.30602    0.01685     6.32190
      H    2    0.25361      0.00000     0.74506    0.00133     0.74639
      C    3   -0.40650      1.99916     4.39265    0.01469     6.40650
      H    4    0.25036      0.00000     0.74856    0.00109     0.74964
      H    5    0.26549      0.00000     0.73377    0.00073     0.73451
      C    6   -0.16709      1.99907     4.15361    0.01441     6.16709
      H    7    0.24334      0.00000     0.75574    0.00093     0.75666
      C    8   -0.44593      1.99920     4.43212    0.01461     6.44593
      H    9    0.25474      0.00000     0.74453    0.00072     0.74526
      H   10    0.24865      0.00000     0.75042    0.00093     0.75135
      C   11   -0.27973      1.99906     4.26511    0.01556     6.27973
      H   12    0.25566      0.00000     0.74338    0.00096     0.74434
      C   13   -0.32569      1.99922     4.31167    0.01481     6.32569
      H   14    0.22552      0.00000     0.77368    0.00080     0.77448
      H   15    0.27372      0.00000     0.72319    0.00309     0.72628
      C   16    0.32346      1.99919     3.64874    0.02860     5.67654
      H   17    0.21310      0.00000     0.78366    0.00324     0.78690
      O   18   -0.60771      1.99972     6.59542    0.01257     8.60771
      B   19    1.38057      1.99981     1.56318    0.05643     3.61943
      F   20   -0.55205      1.99995     7.54519    0.00691     9.55205
      F   21   -0.54901      1.99994     7.54245    0.00661     9.54901
      F   22   -0.53263      1.99995     7.52522    0.00746     9.53263
 =======================================================================
   * Total *    0.00000     23.99332    67.78337    0.22331    92.00000

 ******    1 imaginary frequencies (negative Signs) ******

                      1                      2                      3
                      A                      A                      A
 Frequencies --   -378.2722                37.2013                54.3460
 Red. masses --      8.6022                 9.4344                 4.1516
 Frc consts  --      0.7252                 0.0077                 0.0072
 IR Inten    --     48.0637                 0.1672                 2.7243

                      4                      5                      6
                      A                      A                      A
 Frequencies --     93.5163               137.6187               155.4327
 Red. masses --      6.4586                 4.9060                 7.3833
 Frc consts  --      0.0333                 0.0547                 0.1051
 IR Inten    --      0.2988                 1.0721                 0.8738

                      7                      8                      9
                      A                      A                      A
 Frequencies --    197.4247               253.2104               294.9914
 Red. masses --      5.1140                 2.7129                 5.5470
 Frc consts  --      0.1174                 0.1025                 0.2844
 IR Inten    --      7.6128                 2.2975                 3.8986

                     10                     11                     12
                      A                      A                      A
 Frequencies --    309.2517               325.1661               344.9873
 Red. masses --      4.3976                 3.8023                 2.8889
 Frc consts  --      0.2478                 0.2369                 0.2026
 IR Inten    --      1.2520                 5.7438                 6.2338

                     13                     14                     15
                      A                      A                      A
 Frequencies --    355.8021               406.0394               430.6440
 Red. masses --      6.6920                 3.4789                 3.0654
 Frc consts  --      0.4991                 0.3379                 0.3349
 IR Inten    --      0.8103                 2.8640                 9.2053

                     16                     17                     18
                      A                      A                      A
 Frequencies --    448.3177               507.5548               527.2865
 Red. masses --      2.6039                15.2201                 7.6702
 Frc consts  --      0.3084                 2.3101                 1.2565
 IR Inten    --      3.3351                 4.4710                 3.4128

                     19                     20                     21
                      A                      A                      A
 Frequencies --    585.3602               621.1226               681.5462
 Red. masses --      2.0679                 8.7147                 1.2259
 Frc consts  --      0.4175                 1.9809                 0.3355
 IR Inten    --      1.5870                42.4290                26.7921

                     22                     23                     24
                      A                      A                      A
 Frequencies --    711.2137               803.7179               837.9194
 Red. masses --      7.1692                 1.2705                 1.5145
 Frc consts  --      2.1366                 0.4835                 0.6265
 IR Inten    --    364.9398                 2.5328                18.1843

                     25                     26                     27
                      A                      A                      A
 Frequencies --    855.2836               913.4091               952.0586
 Red. masses --      9.4907                 1.3308                 1.4799
 Frc consts  --      4.0904                 0.6542                 0.7903
 IR Inten    --    384.0197                46.7275                14.7820

                     28                     29                     30
                      A                      A                      A
 Frequencies --    988.1111               992.1733              1019.5601
 Red. masses --      1.2135                 1.2368                 1.2363
 Frc consts  --      0.6981                 0.7174                 0.7572
 IR Inten    --      9.2983                36.5625                 8.2489

                     31                     32                     33
                      A                      A                      A
 Frequencies --   1022.7219              1044.9994              1078.8498
 Red. masses --      1.2960                 1.2909                 1.2121
 Frc consts  --      0.7987                 0.8306                 0.8312
 IR Inten    --      9.4526                 6.1481                 1.2043

                     34                     35                     36
                      A                      A                      A
 Frequencies --   1092.2742              1127.6052              1135.2974
 Red. masses --      1.4203                 1.3922                 1.4184
 Frc consts  --      0.9984                 1.0429                 1.0772
 IR Inten    --      0.6070                 5.6665                 2.2368

                     37                     38                     39
                      A                      A                      A
 Frequencies --   1198.0422              1252.6156              1267.5369
 Red. masses --      7.6050                 1.5136                 2.7416
 Frc consts  --      6.4312                 1.3992                 2.5952
 IR Inten    --    220.2371               138.9798               169.1292

                     40                     41                     42
                      A                      A                      A
 Frequencies --   1287.2492              1305.7124              1322.3043
 Red. masses --      1.6217                 4.7615                 1.5314
 Frc consts  --      1.5832                 4.7829                 1.5777
 IR Inten    --     13.5261               194.6810                16.7247

                     43                     44                     45
                      A                      A                      A
 Frequencies --   1373.4102              1447.7772              1463.2503
 Red. masses --      1.2512                 2.0059                 1.2282
 Frc consts  --      1.3905                 2.4772                 1.5494
 IR Inten    --     51.9996                27.1533                 6.5382

                     46                     47                     48
                      A                      A                      A
 Frequencies --   1517.2458              1546.1701              1591.4805
 Red. masses --      1.6192                 1.5822                 2.3552
 Frc consts  --      2.1961                 2.2286                 3.5147
 IR Inten    --     22.2461                14.2029                52.8136

                     49                     50                     51
                      A                      A                      A
 Frequencies --   1622.4434              1654.0883              3138.6952
 Red. masses --      2.3773                 4.7288                 1.0889
 Frc consts  --      3.6870                 7.6228                 6.3202
 IR Inten    --     13.1188               507.2903                 6.8177

                     52                     53                     54
                      A                      A                      A
 Frequencies --   3156.9928              3161.5055              3176.7549
 Red. masses --      1.0579                 1.0571                 1.0879
 Frc consts  --      6.2119                 6.2250                 6.4686
 IR Inten    --      2.7287                 4.6534                 3.7435

                     55                     56                     57
                      A                      A                      A
 Frequencies --   3189.2092              3195.4217              3199.7807
 Red. masses --      1.0580                 1.0929                 1.0904
 Frc consts  --      6.3404                 6.5751                 6.5775
 IR Inten    --     24.2728                 6.8877                 2.1912

                     58                     59                     60
                      A                      A                      A
 Frequencies --   3237.4458              3240.1425              3282.8805
 Red. masses --      1.1148                 1.1148                 1.1179
 Frc consts  --      6.8845                 6.8956                 7.0984
 IR Inten    --      6.3216                 1.8684                10.7074

 - Thermochemistry -
 -------------------
 Temperature   298.150 Kelvin.  Pressure   1.00000 Atm.
 Atom     1 has atomic number  6 and mass  12.00000

 Molecular mass:   178.07768 amu.
 Principal axes and moments of inertia in atomic units:
                           1         2         3
     Eigenvalues --   997.096283653.345094058.16401
           X            0.99997   0.00694  -0.00340
           Y           -0.00690   0.99988   0.01388
           Z            0.00350  -0.01386   0.99990
 This molecule is an asymmetric top.
 Rotational symmetry number  1.
 Warning -- assumption of classical behavior for rotation
           may cause significant error
 Rotational temperatures (Kelvin)      0.08687     0.02371     0.02134
 Rotational constants (GHZ):           1.81000     0.49400     0.44472
    1 imaginary frequencies ignored.
 Zero-point vibrational energy     437654.8 (Joules/Mol)
                                  104.60201 (Kcal/Mol)
 Warning -- explicit consideration of  18 degrees of freedom as
           vibrations may cause significant error
 Vibrational temperatures:     53.52    78.19   134.55   198.00   223.63
          (Kelvin)            284.05   364.31   424.43   444.94   467.84
                              496.36   511.92   584.20   619.60   645.03
                              730.26   758.65   842.20   893.66   980.59
                             1023.28  1156.37  1205.58  1230.56  1314.19
                             1369.80  1421.67  1427.51  1466.92  1471.47
                             1503.52  1552.22  1571.54  1622.37  1633.44
                             1723.71  1802.23  1823.70  1852.06  1878.63
                             1902.50  1976.03  2083.03  2105.29  2182.98
                             2224.59  2289.78  2334.33  2379.86  4515.88
                             4542.20  4548.70  4570.64  4588.56  4597.49
                             4603.76  4657.96  4661.84  4723.33

 Zero-point correction=                           0.166694 (Hartree/Particle)
 Thermal correction to Energy=                    0.178763
 Thermal correction to Enthalpy=                  0.179707
 Thermal correction to Gibbs Free Energy=         0.127926
 Sum of electronic and zero-point Energies=           -672.333639
 Sum of electronic and thermal Energies=              -672.321570
 Sum of electronic and thermal Enthalpies=            -672.320626
 Sum of electronic and thermal Free Energies=         -672.372407

                     E (Thermal)             CV                S
                      KCal/Mol        Cal/Mol-Kelvin    Cal/Mol-Kelvin
 Total                  112.175             44.947            108.982
 Electronic               0.000              0.000              0.000
 Translational            0.889              2.981             41.438
 Rotational               0.889              2.981             31.070
 Vibrational            110.398             38.985             36.474
 Vibration     1          0.594              1.982              5.403
 Vibration     2          0.596              1.976              4.653
 Vibration     3          0.603              1.954              3.585
 Vibration     4          0.614              1.916              2.837
 Vibration     5          0.620              1.897              2.605
 Vibration     6          0.637              1.843              2.157
 Vibration     7          0.664              1.757              1.708
 Vibration     8          0.689              1.683              1.445
 Vibration     9          0.699              1.656              1.366
 Vibration    10          0.709              1.625              1.284
 Vibration    11          0.723              1.585              1.189
 Vibration    12          0.731              1.563              1.140
 Vibration    13          0.771              1.457              0.941
 Vibration    14          0.792              1.403              0.857
 Vibration    15          0.807              1.365              0.801
 Vibration    16          0.863              1.233              0.640
 Vibration    17          0.882              1.190              0.593
 Vibration    18          0.942              1.063              0.476

 Optimization completed.
    -- Stationary point found.
 Normal termination of Gaussian 09 at Tue Apr  4 15:13:57 2017.
