 Gaussian 09, Revision D.01,
 Gaussian 09:  EM64L-G09RevD.01 24-Apr-2013

 ----------------------------------------------------------------------
 #p b3lyp/6-31g* empiricaldispersion=gd3bj opt=(ts,noeigentest,calcfc,m
 axstep=5) freq=noraman pop=(chelpg,npa)
 ----------------------------------------------------------------------

 -------------------
 Title Card Required
 -------------------
 Symbolic Z-matrix:
 Charge =  0 Multiplicity = 1

 SCF Done:  E(RB3LYP) =  -347.895090362     A.U. after   16 cycles
 SCF Done:  E(RB3LYP) =  -347.898120577     A.U. after   13 cycles
 SCF Done:  E(RB3LYP) =  -347.900668043     A.U. after   13 cycles
 SCF Done:  E(RB3LYP) =  -347.902722419     A.U. after   13 cycles
 SCF Done:  E(RB3LYP) =  -347.904166257     A.U. after   13 cycles
 SCF Done:  E(RB3LYP) =  -347.904892389     A.U. after   13 cycles
 SCF Done:  E(RB3LYP) =  -347.904980104     A.U. after   12 cycles
 SCF Done:  E(RB3LYP) =  -347.904980681     A.U. after    9 cycles
 SCF Done:  E(RB3LYP) =  -347.904980539     A.U. after    8 cycles
 SCF Done:  E(RB3LYP) =  -347.904980703     A.U. after    8 cycles
 Optimization completed.
    -- Stationary point found.
 Normal termination of Gaussian 09 at Mon Apr  3 12:33:46 2017.

 --------------------------------------------------------------------
 #P Geom=AllCheck Guess=TCheck SCRF=Check GenChk RB3LYP/6-31G(d) Freq
 --------------------------------------------------------------------

 Structure from the checkpoint file:  "g09.chk"
 -------------------
 Title Card Required
 -------------------
 Charge =  0 Multiplicity = 1

                         Standard orientation:
 ---------------------------------------------------------------------
 Center     Atomic      Atomic             Coordinates (Angstroms)
 Number     Number       Type             X           Y           Z
 ---------------------------------------------------------------------
      1          6           0       -0.837687    0.840571    0.421836
      2          1           0       -1.161123    0.940889    1.454649
      3          6           0        0.191937    1.638047   -0.075245
      4          1           0        0.276723    1.757128   -1.151740
      5          1           0        0.510426    2.501898    0.500542
      6          6           0        1.967399   -0.457031   -0.545419
      7          1           0        2.460400   -0.499048   -1.514542
      8          6           0        2.079454    0.706666    0.205575
      9          1           0        2.779970    1.475472   -0.110292
     10          1           0        1.903512    0.680192    1.275990
     11          6           0        1.011945   -1.447250   -0.250082
     12          1           0        0.811552   -2.205125   -1.004351
     13          6           0        0.167917   -1.353916    0.832363
     14          1           0        0.443463   -0.795410    1.718196
     15          1           0       -0.669149   -2.033866    0.951190
     16          6           0       -1.764118    0.147054   -0.475192
     17          1           0       -1.390527    0.058972   -1.522400
     18          8           0       -2.858291   -0.290743   -0.160033
 ---------------------------------------------------------------------

 SCF Done:  E(RB3LYP) =  -347.904980703     A.U. after    1 cycles

 The electronic state is 1-A.
 Alpha  occ. eigenvalues --  -19.11660 -10.25541 -10.21024 -10.20995 -10.20750
 Alpha  occ. eigenvalues --  -10.20217 -10.19821 -10.19730  -1.01356  -0.82689
 Alpha  occ. eigenvalues --   -0.77806  -0.73571  -0.64539  -0.63073  -0.56034
 Alpha  occ. eigenvalues --   -0.53743  -0.50664  -0.46422  -0.45370  -0.44075
 Alpha  occ. eigenvalues --   -0.42209  -0.39562  -0.39096  -0.38391  -0.37079
 Alpha  occ. eigenvalues --   -0.36445  -0.34154  -0.25988  -0.23532  -0.22660
 Alpha virt. eigenvalues --   -0.05486  -0.00847   0.04224   0.08719   0.09120
 Alpha virt. eigenvalues --    0.11044   0.12471   0.12822   0.14653   0.17093
 Alpha virt. eigenvalues --    0.17194   0.19210   0.20201   0.22916   0.27168

 Mulliken charges:
               1
     1  C   -0.133096
     2  H    0.147176
     3  C   -0.342117
     4  H    0.164809
     5  H    0.171019
     6  C   -0.071954
     7  H    0.136397
     8  C   -0.344937
     9  H    0.155425
    10  H    0.169668
    11  C   -0.084257
    12  H    0.140785
    13  C   -0.334411
    14  H    0.162093
    15  H    0.178703
    16  C    0.246718
    17  H    0.082158
    18  O   -0.444178
 Sum of Mulliken charges =   0.00000

 Dipole moment (field-independent basis, Debye):
    X=              3.8690    Y=              1.0899    Z=              0.0759  Tot=              4.0204
 Quadrupole moment (field-independent basis, Debye-Ang):
   XX=            -60.5225   YY=            -45.8745   ZZ=            -44.9309
   XY=              0.7856   XZ=             -1.4694   YZ=              0.8808

  Exact polarizability: 104.889   4.686  83.291  -8.384   2.559  65.096
 Approx polarizability: 190.838   6.872 146.197 -25.165   3.686 102.761

 ESP charges:
               1
     1  C   -0.144184
     2  H    0.096543
     3  C   -0.069259
     4  H    0.055717
     5  H    0.056230
     6  C   -0.181737
     7  H    0.119964
     8  C   -0.051854
     9  H    0.058815
    10  H    0.078683
    11  C   -0.046725
    12  H    0.088328
    13  C   -0.214971
    14  H    0.116432
    15  H    0.136038
    16  C    0.380584
    17  H   -0.002837
    18  O   -0.475768
 Sum of ESP charges =   0.00000

 Summary of Natural Population Analysis:

                                       Natural Population
                Natural  -----------------------------------------------
    Atom  No    Charge         Core      Valence    Rydberg      Total
 -----------------------------------------------------------------------
      C    1   -0.34325      1.99899     4.32643    0.01783     6.34325
      H    2    0.24600      0.00000     0.75225    0.00175     0.75400
      C    3   -0.43485      1.99911     4.42096    0.01477     6.43485
      H    4    0.23913      0.00000     0.75945    0.00142     0.76087
      H    5    0.25164      0.00000     0.74762    0.00074     0.74836
      C    6   -0.22345      1.99904     4.20985    0.01456     6.22345
      H    7    0.23449      0.00000     0.76453    0.00097     0.76551
      C    8   -0.43671      1.99920     4.42302    0.01448     6.43671
      H    9    0.24257      0.00000     0.75672    0.00071     0.75743
      H   10    0.23685      0.00000     0.76219    0.00097     0.76315
      C   11   -0.27073      1.99905     4.25648    0.01520     6.27073
      H   12    0.23982      0.00000     0.75923    0.00095     0.76018
      C   13   -0.38466      1.99921     4.37124    0.01422     6.38466
      H   14    0.22814      0.00000     0.77111    0.00076     0.77186
      H   15    0.24681      0.00000     0.75224    0.00095     0.75319
      C   16    0.35508      1.99936     3.61148    0.03408     5.64492
      H   17    0.13414      0.00000     0.86223    0.00363     0.86586
      O   18   -0.56103      1.99981     6.54205    0.01916     8.56103
 =======================================================================
   * Total *    0.00000     15.99378    43.84908    0.15714    60.00000

 ******    1 imaginary frequencies (negative Signs) ******

                      1                      2                      3
                      A                      A                      A
 Frequencies --   -440.6146                75.3485               126.4463
 Red. masses --      7.9731                 3.6045                 6.2058
 Frc consts  --      0.9120                 0.0121                 0.0585
 IR Inten    --      2.0946                 3.0272                 1.7908

                      4                      5                      6
                      A                      A                      A
 Frequencies --    205.0408               226.4817               294.6542
 Red. masses --      4.3854                 2.4796                 2.7342
 Frc consts  --      0.1086                 0.0749                 0.1399
 IR Inten    --      7.5861                 1.5745                 0.2383

                      7                      8                      9
                      A                      A                      A
 Frequencies --    338.0400               364.4846               398.5628
 Red. masses --      2.5382                 3.0061                 2.8126
 Frc consts  --      0.1709                 0.2353                 0.2632
 IR Inten    --      5.3479                 3.7665                 7.7665

                     10                     11                     12
                      A                      A                      A
 Frequencies --    472.4077               576.3571               588.4633
 Red. masses --      2.3079                 3.3692                 2.1536
 Frc consts  --      0.3035                 0.6594                 0.4394
 IR Inten    --      0.9559                 9.0916                 2.1841

                     13                     14                     15
                      A                      A                      A
 Frequencies --    681.6315               769.3238               803.0550
 Red. masses --      1.2257                 1.1965                 1.4746
 Frc consts  --      0.3355                 0.4172                 0.5603
 IR Inten    --     23.9221                 4.1662                12.2650

                     16                     17                     18
                      A                      A                      A
 Frequencies --    914.3558               919.2895               944.0706
 Red. masses --      1.2476                 1.2458                 1.2424
 Frc consts  --      0.6146                 0.6203                 0.6524
 IR Inten    --     12.8573                13.7617                 3.0999

                     19                     20                     21
                      A                      A                      A
 Frequencies --    962.5562               978.7877              1000.9804
 Red. masses --      1.4139                 1.2255                 1.4210
 Frc consts  --      0.7718                 0.6917                 0.8389
 IR Inten    --      6.7558                 5.6116                18.7621

                     22                     23                     24
                      A                      A                      A
 Frequencies --   1022.0295              1047.6000              1067.6386
 Red. masses --      1.3642                 1.2093                 1.2667
 Frc consts  --      0.8396                 0.7819                 0.8507
 IR Inten    --      6.3290                 1.4969                12.5234

                     25                     26                     27
                      A                      A                      A
 Frequencies --   1109.0703              1121.8811              1187.9401
 Red. masses --      1.6670                 1.4920                 1.8413
 Frc consts  --      1.2081                 1.1064                 1.5310
 IR Inten    --      1.3172                 1.7267                89.5738

                     28                     29                     30
                      A                      A                      A
 Frequencies --   1259.0573              1282.8200              1313.7086
 Red. masses --      1.8114                 1.4989                 1.4479
 Frc consts  --      1.6918                 1.4533                 1.4722
 IR Inten    --      2.4020                 0.3675                 1.0626

                     31                     32                     33
                      A                      A                      A
 Frequencies --   1380.3437              1454.7272              1458.3393
 Red. masses --      1.4015                 1.2327                 1.3214
 Frc consts  --      1.5733                 1.5370                 1.6558
 IR Inten    --      8.5399                 2.9870                 2.2307

                     34                     35                     36
                      A                      A                      A
 Frequencies --   1512.6586              1549.0858              1603.8924
 Red. masses --      1.6454                 1.4868                 2.5619
 Frc consts  --      2.2182                 2.1021                 3.8829
 IR Inten    --     11.2083                 0.8690                 2.4351

                     37                     38                     39
                      A                      A                      A
 Frequencies --   1619.5986              1780.7846              2875.0323
 Red. masses --      2.4321                 8.8454                 1.0822
 Frc consts  --      3.7588                16.5269                 5.2702
 IR Inten    --      2.8282               356.8038                95.0321

                     40                     41                     42
                      A                      A                      A
 Frequencies --   3156.6652              3161.4565              3169.6878
 Red. masses --      1.0568                 1.0576                 1.0854
 Frc consts  --      6.2043                 6.2278                 6.4248
 IR Inten    --      5.0308                 7.8440                 7.7713

                     43                     44                     45
                      A                      A                      A
 Frequencies --   3185.3268              3190.8809              3195.1405
 Red. masses --      1.0831                 1.0873                 1.0712
 Frc consts  --      6.4746                 6.5225                 6.4432
 IR Inten    --     14.5806                 8.3545                 2.4774

                     46                     47                     48
                      A                      A                      A
 Frequencies --   3236.0594              3239.1194              3273.7110
 Red. masses --      1.1157                 1.1148                 1.1163
 Frc consts  --      6.8838                 6.8916                 7.0487
 IR Inten    --      4.8231                12.3702                 3.8059

 - Thermochemistry -
 -------------------
 Temperature   298.150 Kelvin.  Pressure   1.00000 Atm.
 Atom     1 has atomic number  6 and mass  12.00000

 Molecular mass:   110.07317 amu.
 Principal axes and moments of inertia in atomic units:
                           1         2         3
     Eigenvalues --   550.335521226.656491538.68715
           X            0.99975   0.02148  -0.00665
           Y           -0.02142   0.99972   0.00981
           Z            0.00686  -0.00967   0.99993
 This molecule is an asymmetric top.
 Rotational symmetry number  1.
 Warning -- assumption of classical behavior for rotation
           may cause significant error
 Rotational temperatures (Kelvin)      0.15738     0.07061     0.05629
 Rotational constants (GHZ):           3.27935     1.47127     1.17291
    1 imaginary frequencies ignored.
 Zero-point vibrational energy     395333.5 (Joules/Mol)
                                   94.48696 (Kcal/Mol)
 Warning -- explicit consideration of  11 degrees of freedom as
           vibrations may cause significant error
 Vibrational temperatures:    108.41   181.93   295.01   325.86   423.94
          (Kelvin)            486.36   524.41   573.44   679.69   829.25
                              846.67   980.71  1106.88  1155.42  1315.55
                             1322.65  1358.31  1384.90  1408.26  1440.19
                             1470.47  1507.26  1536.09  1595.70  1614.13
                             1709.18  1811.50  1845.69  1890.13  1986.00
                             2093.03  2098.22  2176.38  2228.79  2307.64
                             2330.24  2562.15  4136.53  4541.73  4548.63
                             4560.47  4582.97  4590.96  4597.09  4655.96
                             4660.36  4710.13

 Zero-point correction=                           0.150575 (Hartree/Particle)
 Thermal correction to Energy=                    0.158773
 Thermal correction to Enthalpy=                  0.159717
 Thermal correction to Gibbs Free Energy=         0.117959
 Sum of electronic and zero-point Energies=           -347.754406
 Sum of electronic and thermal Energies=              -347.746208
 Sum of electronic and thermal Enthalpies=            -347.745264
 Sum of electronic and thermal Free Energies=         -347.787022

                     E (Thermal)             CV                S
                      KCal/Mol        Cal/Mol-Kelvin    Cal/Mol-Kelvin
 Total                   99.631             30.803             87.888
 Electronic               0.000              0.000              0.000
 Translational            0.889              2.981             40.004
 Rotational               0.889              2.981             28.431
 Vibrational             97.854             24.842             19.452
 Vibration     1          0.599              1.965              4.009
 Vibration     2          0.611              1.927              2.999
 Vibration     3          0.640              1.833              2.087
 Vibration     4          0.650              1.801              1.907
 Vibration     5          0.689              1.684              1.447
 Vibration     6          0.718              1.600              1.221
 Vibration     7          0.738              1.545              1.103
 Vibration     8          0.765              1.473              0.968
 Vibration     9          0.829              1.311              0.731
 Vibration    10          0.933              1.082              0.492
 Vibration    11          0.946              1.056              0.470

 Optimization completed.
    -- Stationary point found.
 Normal termination of Gaussian 09 at Mon Apr  3 12:34:56 2017.
