 Gaussian 09, Revision D.01,
 Gaussian 09:  EM64L-G09RevD.01 24-Apr-2013

 ----------------------------------------------------------------------
 #p b3lyp/6-31g* empiricaldispersion=gd3bj opt freq=noraman pop=(chelpg
 ,npa)
 ----------------------------------------------------------------------

 -------------------
 Title Card Required
 -------------------
 Symbolic Z-matrix:
 Charge =  0 Multiplicity = 1

 SCF Done:  E(RB3LYP) =  -78.5895455156     A.U. after    9 cycles
 SCF Done:  E(RB3LYP) =  -78.5912738686     A.U. after    9 cycles
 SCF Done:  E(RB3LYP) =  -78.5913949075     A.U. after    8 cycles
 SCF Done:  E(RB3LYP) =  -78.5913979020     A.U. after    5 cycles
 Optimization completed.
    -- Stationary point found.
 Normal termination of Gaussian 09 at Mon Apr  3 11:54:47 2017.

 --------------------------------------------------------------------
 #P Geom=AllCheck Guess=TCheck SCRF=Check GenChk RB3LYP/6-31G(d) Freq
 --------------------------------------------------------------------

 Structure from the checkpoint file:  "g09.chk"
 -------------------
 Title Card Required
 -------------------
 Charge =  0 Multiplicity = 1

                         Standard orientation:
 ---------------------------------------------------------------------
 Center     Atomic      Atomic             Coordinates (Angstroms)
 Number     Number       Type             X           Y           Z
 ---------------------------------------------------------------------
      1          6           0        0.000000    0.665357    0.000000
      2          1           0        0.923754    1.239149    0.000000
      3          1           0       -0.923716    1.239192    0.000000
      4          6           0        0.000000   -0.665357    0.000000
      5          1           0       -0.923754   -1.239149    0.000000
      6          1           0        0.923716   -1.239192    0.000000
 ---------------------------------------------------------------------

 SCF Done:  E(RB3LYP) =  -78.5913979020     A.U. after    1 cycles

 The electronic state is 1-AG.
 Alpha  occ. eigenvalues --  -10.18422 -10.18333  -0.75481  -0.57728  -0.46475
 Alpha  occ. eigenvalues --   -0.41636  -0.35322  -0.26666
 Alpha virt. eigenvalues --    0.01885   0.12233   0.14026   0.15761   0.24408
 Alpha virt. eigenvalues --    0.33237   0.48026   0.54844   0.56873   0.63731
 Alpha virt. eigenvalues --    0.65517   0.69924   0.84746   0.87225   0.93170

 Mulliken charges:
               1
     1  C   -0.285411
     2  H    0.142703
     3  H    0.142708
     4  C   -0.285411
     5  H    0.142703
     6  H    0.142708
 Sum of Mulliken charges =   0.00000

 Dipole moment (field-independent basis, Debye):
    X=              0.0000    Y=              0.0000    Z=              0.0000  Tot=              0.0000
 Quadrupole moment (field-independent basis, Debye-Ang):
   XX=            -12.1162   YY=            -12.0002   ZZ=            -15.0306
   XY=             -0.0001   XZ=              0.0000   YZ=              0.0000

  Exact polarizability:  20.410   0.000  30.770   0.000   0.000   8.511
 Approx polarizability:  25.284   0.000  46.691   0.000   0.000  11.018

 ESP charges:
               1
     1  C   -0.254782
     2  H    0.127454
     3  H    0.127328
     4  C   -0.254782
     5  H    0.127454
     6  H    0.127328
 Sum of ESP charges =   0.00000

 Summary of Natural Population Analysis:

                                       Natural Population
                Natural  -----------------------------------------------
    Atom  No    Charge         Core      Valence    Rydberg      Total
 -----------------------------------------------------------------------
      C    1   -0.42716      1.99920     4.41566    0.01229     6.42716
      H    2    0.21358      0.00000     0.78567    0.00076     0.78642
      H    3    0.21358      0.00000     0.78566    0.00076     0.78642
      C    4   -0.42716      1.99920     4.41566    0.01229     6.42716
      H    5    0.21358      0.00000     0.78567    0.00076     0.78642
      H    6    0.21358      0.00000     0.78566    0.00076     0.78642
 =======================================================================
   * Total *    0.00000      3.99840    11.97398    0.02761    16.00000

                      1                      2                      3
                     BU                     BG                     AU
 Frequencies --    835.6655               956.0273               975.4497
 Red. masses --      1.0427                 1.5206                 1.1607
 Frc consts  --      0.4290                 0.8189                 0.6507
 IR Inten    --      0.7294                 0.0000                83.0276

                      4                      5                      6
                     AU                     AG                     AG
 Frequencies --   1070.0338              1248.3268              1396.4338
 Red. masses --      1.0078                 1.5257                 1.2254
 Frc consts  --      0.6799                 1.4008                 1.4079
 IR Inten    --      0.0000                 0.0000                 0.0000

                      7                      8                      9
                     BU                     AG                     BU
 Frequencies --   1494.4334              1721.1544              3152.2688
 Red. masses --      1.1120                 3.1211                 1.0477
 Frc consts  --      1.4632                 5.4476                 6.1341
 IR Inten    --      5.2401                 0.0000                18.7626

                     10                     11                     12
                     AG                     AG                     BU
 Frequencies --   3167.7072              3222.6752              3248.2781
 Red. masses --      1.0737                 1.1149                 1.1177
 Frc consts  --      6.3479                 6.8224                 6.9481
 IR Inten    --      0.0000                 0.0000                33.5477

 - Thermochemistry -
 -------------------
 Temperature   298.150 Kelvin.  Pressure   1.00000 Atm.
 Atom     1 has atomic number  6 and mass  12.00000

 Molecular mass:    28.03130 amu.
 Principal axes and moments of inertia in atomic units:
                           1         2         3
     Eigenvalues --    12.28394  60.04755  72.33149
           X            0.00000   1.00000   0.00000
           Y            1.00000   0.00000   0.00000
           Z            0.00000   0.00000   1.00000
 This molecule is an asymmetric top.
 Rotational symmetry number  2.
 Rotational temperatures (Kelvin)      7.05098     1.44242     1.19746
 Rotational constants (GHZ):         146.91880    30.05520    24.95097
 Zero-point vibrational energy     134510.8 (Joules/Mol)
                                   32.14886 (Kcal/Mol)
 Vibrational temperatures:   1202.33  1375.51  1403.45  1539.54  1796.06
          (Kelvin)           2009.15  2150.15  2476.35  4535.41  4557.62
                             4636.70  4673.54

 Zero-point correction=                           0.051232 (Hartree/Particle)
 Thermal correction to Energy=                    0.054274
 Thermal correction to Enthalpy=                  0.055218
 Thermal correction to Gibbs Free Energy=         0.029703
 Sum of electronic and zero-point Energies=            -78.540165
 Sum of electronic and thermal Energies=               -78.537124
 Sum of electronic and thermal Enthalpies=             -78.536179
 Sum of electronic and thermal Free Energies=          -78.561695

                     E (Thermal)             CV                S
                      KCal/Mol        Cal/Mol-Kelvin    Cal/Mol-Kelvin
 Total                   34.058              8.088             53.702
 Electronic               0.000              0.000              0.000
 Translational            0.889              2.981             35.927
 Rotational               0.889              2.981             17.241
 Vibrational             32.280              2.126              0.534

 Optimization completed.
    -- Stationary point found.
 Normal termination of Gaussian 09 at Mon Apr  3 11:54:53 2017.
