 Gaussian 09, Revision D.01,
 Gaussian 09:  EM64L-G09RevD.01 24-Apr-2013

 ------------------------------------------
 #p b3lyp empiricaldispersion=gd3bj cc-pVTZ
 ------------------------------------------

 ---------------------
 benzene dimer 4.40425
 ---------------------
 Symbolic Z-matrix:
 Charge =  0 Multiplicity = 1

                         Standard orientation:
 ---------------------------------------------------------------------
 Center     Atomic      Atomic             Coordinates (Angstroms)
 Number     Number       Type             X           Y           Z
 ---------------------------------------------------------------------
      1          6           0       -1.391500    0.000000   -3.450000
      2          1           0       -2.471500    0.000000   -3.450000
      3          6           0       -0.695750    1.205074   -3.450000
      4          1           0       -1.235750    2.140382   -3.450000
      5          6           0       -0.695750   -1.205074   -3.450000
      6          1           0       -1.235750   -2.140382   -3.450000
      7          6           0        0.695750    1.205074   -3.450000
      8          1           0        1.235750    2.140382   -3.450000
      9          6           0        0.695750   -1.205074   -3.450000
     10          1           0        1.235750   -2.140382   -3.450000
     11          6           0        1.391500    0.000000   -3.450000
     12          1           0        2.471500    0.000000   -3.450000
     13          6           0        0.000000    0.000000    2.058500
     14          6           0        0.000000   -1.205074    2.754250
     15          1           0        0.000000   -2.140382    2.214250
     16          1           0        0.000000    0.000000    0.978500
     17          6           0        0.000000   -1.205074    4.145750
     18          1           0        0.000000   -2.140382    4.685750
     19          6           0        0.000000    0.000000    4.841500
     20          1           0        0.000000    0.000000    5.921500
     21          6           0        0.000000    1.205074    4.145750
     22          1           0        0.000000    2.140382    4.685750
     23          6           0        0.000000    1.205074    2.754250
     24          1           0        0.000000    2.140382    2.214250
 ---------------------------------------------------------------------

 SCF Done:  E(RB3LYP) =  -464.705465504     A.U. after   11 cycles

 The electronic state is 1-A1.
 Alpha  occ. eigenvalues --  -10.17992 -10.17967 -10.17964 -10.17908 -10.17905
 Alpha  occ. eigenvalues --  -10.17880 -10.17610 -10.17580 -10.17553 -10.17514
 Alpha  occ. eigenvalues --  -10.17510 -10.17442  -0.85895  -0.85493  -0.75047
 Alpha  occ. eigenvalues --   -0.75042  -0.74657  -0.74633  -0.60735  -0.60733
 Alpha  occ. eigenvalues --   -0.60344  -0.60329  -0.52935  -0.52538  -0.46574
 Alpha  occ. eigenvalues --   -0.46179  -0.45180  -0.44781  -0.42669  -0.42661
 Alpha  occ. eigenvalues --   -0.42290  -0.42245  -0.37359  -0.36954  -0.34928
 Alpha  occ. eigenvalues --   -0.34923  -0.34546  -0.34508  -0.25974  -0.25967
 Alpha  occ. eigenvalues --   -0.25582  -0.25557
 Alpha virt. eigenvalues --   -0.01371  -0.01368  -0.00982  -0.00962   0.03562
 Alpha virt. eigenvalues --    0.04426   0.06826   0.07024   0.07374   0.07422
 Alpha virt. eigenvalues --    0.10074   0.10099   0.10304   0.10437   0.12703

 Mulliken charges:
               1
     1  C   -0.106084
     2  H    0.106761
     3  C   -0.106696
     4  H    0.106553
     5  C   -0.106696
     6  H    0.106553
     7  C   -0.106696
     8  H    0.106553
     9  C   -0.106696
    10  H    0.106553
    11  C   -0.106084
    12  H    0.106761
    13  C   -0.114730
    14  C   -0.109300
    15  H    0.105579
    16  H    0.124869
    17  C   -0.104980
    18  H    0.104502
    19  C   -0.107120
    20  H    0.104598
    21  C   -0.104980
    22  H    0.104502
    23  C   -0.109300
    24  H    0.105579
 Sum of Mulliken charges =   0.00000

 Dipole moment (field-independent basis, Debye):
    X=              0.0000    Y=              0.0000    Z=             -0.1459  Tot=              0.1459
 Quadrupole moment (field-independent basis, Debye-Ang):
   XX=            -71.6096   YY=            -64.2756   ZZ=            -72.0085
   XY=              0.0000   XZ=              0.0000   YZ=              0.0000

 Normal termination of Gaussian 09 at Sun Mar 19 00:25:21 2017.
