 Gaussian 09, Revision D.01,
 Gaussian 09:  EM64L-G09RevD.01 24-Apr-2013

 -------------------------------------------
 #p pbe1pbe empiricaldispersion=gd3bj 6-31g*
 -------------------------------------------

 ---------------------
 benzene dimer 2.60425
 ---------------------
 Symbolic Z-matrix:
 Charge =  0 Multiplicity = 1

                         Standard orientation:
 ---------------------------------------------------------------------
 Center     Atomic      Atomic             Coordinates (Angstroms)
 Number     Number       Type             X           Y           Z
 ---------------------------------------------------------------------
      1          6           0       -1.391500    0.000000   -2.550000
      2          1           0       -2.471500    0.000000   -2.550000
      3          6           0       -0.695750    1.205074   -2.550000
      4          1           0       -1.235750    2.140382   -2.550000
      5          6           0       -0.695750   -1.205074   -2.550000
      6          1           0       -1.235750   -2.140382   -2.550000
      7          6           0        0.695750    1.205074   -2.550000
      8          1           0        1.235750    2.140382   -2.550000
      9          6           0        0.695750   -1.205074   -2.550000
     10          1           0        1.235750   -2.140382   -2.550000
     11          6           0        1.391500    0.000000   -2.550000
     12          1           0        2.471500    0.000000   -2.550000
     13          6           0        0.000000    0.000000    1.158500
     14          6           0        0.000000   -1.205074    1.854250
     15          1           0        0.000000   -2.140382    1.314250
     16          1           0        0.000000    0.000000    0.078500
     17          6           0        0.000000   -1.205074    3.245750
     18          1           0        0.000000   -2.140382    3.785750
     19          6           0        0.000000    0.000000    3.941500
     20          1           0        0.000000    0.000000    5.021500
     21          6           0        0.000000    1.205074    3.245750
     22          1           0        0.000000    2.140382    3.785750
     23          6           0        0.000000    1.205074    1.854250
     24          1           0        0.000000    2.140382    1.314250
 ---------------------------------------------------------------------

 SCF Done:  E(RPBE1PBE) =  -463.951942694     A.U. after   13 cycles

 The electronic state is 1-A1.
 Alpha  occ. eigenvalues --  -10.23982 -10.23958 -10.23945 -10.23897 -10.23881
 Alpha  occ. eigenvalues --  -10.23859 -10.22843 -10.22804 -10.22760 -10.22665
 Alpha  occ. eigenvalues --  -10.22659 -10.22345  -0.88028  -0.86758  -0.76927
 Alpha  occ. eigenvalues --   -0.76901  -0.75737  -0.75635  -0.62169  -0.62164
 Alpha  occ. eigenvalues --   -0.60995  -0.60934  -0.54120  -0.52929  -0.47727
 Alpha  occ. eigenvalues --   -0.46587  -0.45826  -0.44600  -0.43475  -0.43444
 Alpha  occ. eigenvalues --   -0.42346  -0.42330  -0.38025  -0.36842  -0.35442
 Alpha  occ. eigenvalues --   -0.35422  -0.34299  -0.33985  -0.26323  -0.26316
 Alpha  occ. eigenvalues --   -0.25087  -0.24927
 Alpha virt. eigenvalues --    0.00428   0.00447   0.01653   0.01715   0.09940
 Alpha virt. eigenvalues --    0.11181   0.15426   0.15726   0.16669   0.16956
 Alpha virt. eigenvalues --    0.17173   0.18371   0.19402   0.19420   0.20228

 Mulliken charges:
               1
     1  C   -0.167712
     2  H    0.173022
     3  C   -0.171568
     4  H    0.171723
     5  C   -0.171568
     6  H    0.171723
     7  C   -0.171568
     8  H    0.171723
     9  C   -0.171568
    10  H    0.171723
    11  C   -0.167712
    12  H    0.173022
    13  C   -0.168705
    14  C   -0.173984
    15  H    0.163079
    16  H    0.195170
    17  C   -0.169851
    18  H    0.164266
    19  C   -0.169355
    20  H    0.164630
    21  C   -0.169851
    22  H    0.164266
    23  C   -0.173984
    24  H    0.163079
 Sum of Mulliken charges =   0.00000

 Dipole moment (field-independent basis, Debye):
    X=              0.0000    Y=              0.0000    Z=             -0.5266  Tot=              0.5266
 Quadrupole moment (field-independent basis, Debye-Ang):
   XX=            -69.3990   YY=            -61.9108   ZZ=            -70.1867
   XY=              0.0000   XZ=              0.0000   YZ=              0.0000

 Normal termination of Gaussian 09 at Sun Mar 19 01:34:55 2017.
