 Gaussian 09, Revision D.01,
 Gaussian 09:  EM64L-G09RevD.01 24-Apr-2013

 ------------------------------------------
 #p b3lyp empiricaldispersion=gd3bj cc-pVQZ
 ------------------------------------------

 ---------------------
 benzene dimer 2.90425
 ---------------------
 Symbolic Z-matrix:
 Charge =  0 Multiplicity = 1

                         Standard orientation:
 ---------------------------------------------------------------------
 Center     Atomic      Atomic             Coordinates (Angstroms)
 Number     Number       Type             X           Y           Z
 ---------------------------------------------------------------------
      1          6           0       -1.391500    0.000000   -2.700000
      2          1           0       -2.471500    0.000000   -2.700000
      3          6           0       -0.695750    1.205074   -2.700000
      4          1           0       -1.235750    2.140382   -2.700000
      5          6           0       -0.695750   -1.205074   -2.700000
      6          1           0       -1.235750   -2.140382   -2.700000
      7          6           0        0.695750    1.205074   -2.700000
      8          1           0        1.235750    2.140382   -2.700000
      9          6           0        0.695750   -1.205074   -2.700000
     10          1           0        1.235750   -2.140382   -2.700000
     11          6           0        1.391500    0.000000   -2.700000
     12          1           0        2.471500    0.000000   -2.700000
     13          6           0        0.000000    0.000000    1.308500
     14          6           0        0.000000   -1.205074    2.004250
     15          1           0        0.000000   -2.140382    1.464250
     16          1           0        0.000000    0.000000    0.228500
     17          6           0        0.000000   -1.205074    3.395750
     18          1           0        0.000000   -2.140382    3.935750
     19          6           0        0.000000    0.000000    4.091500
     20          1           0        0.000000    0.000000    5.171500
     21          6           0        0.000000    1.205074    3.395750
     22          1           0        0.000000    2.140382    3.935750
     23          6           0        0.000000    1.205074    2.004250
     24          1           0        0.000000    2.140382    1.464250
 ---------------------------------------------------------------------

 SCF Done:  E(RB3LYP) =  -464.741798989     A.U. after   16 cycles

 The electronic state is 1-A1.
 Alpha  occ. eigenvalues --  -10.18012 -10.17987 -10.17979 -10.17926 -10.17917
 Alpha  occ. eigenvalues --  -10.17892 -10.17195 -10.17159 -10.17115 -10.17058
 Alpha  occ. eigenvalues --  -10.17051 -10.16867  -0.86195  -0.85303  -0.75328
 Alpha  occ. eigenvalues --   -0.75310  -0.74477  -0.74412  -0.61003  -0.60999
 Alpha  occ. eigenvalues --   -0.60161  -0.60122  -0.53225  -0.52372  -0.46820
 Alpha  occ. eigenvalues --   -0.45990  -0.45485  -0.44615  -0.42962  -0.42940
 Alpha  occ. eigenvalues --   -0.42149  -0.42095  -0.37697  -0.36818  -0.35215
 Alpha  occ. eigenvalues --   -0.35201  -0.34395  -0.34223  -0.26356  -0.26341
 Alpha  occ. eigenvalues --   -0.25470  -0.25354
 Alpha virt. eigenvalues --   -0.01891  -0.01850  -0.00951  -0.00949   0.01882
 Alpha virt. eigenvalues --    0.03650   0.04180   0.05233   0.06284   0.06483
 Alpha virt. eigenvalues --    0.07955   0.08082   0.09162   0.09180   0.10923

 Mulliken charges:
               1
     1  C   -0.110045
     2  H    0.114062
     3  C   -0.119090
     4  H    0.117614
     5  C   -0.119090
     6  H    0.117614
     7  C   -0.119090
     8  H    0.117614
     9  C   -0.119090
    10  H    0.117614
    11  C   -0.110045
    12  H    0.114062
    13  C   -0.063834
    14  C   -0.139003
    15  H    0.114930
    16  H    0.113587
    17  C   -0.118002
    18  H    0.113840
    19  C   -0.109653
    20  H    0.114241
    21  C   -0.118002
    22  H    0.113840
    23  C   -0.139003
    24  H    0.114930
 Sum of Mulliken charges =   0.00000

 Dipole moment (field-independent basis, Debye):
    X=              0.0000    Y=              0.0000    Z=             -0.3726  Tot=              0.3726
 Quadrupole moment (field-independent basis, Debye-Ang):
   XX=            -71.7326   YY=            -64.6242   ZZ=            -72.4363
   XY=              0.0000   XZ=              0.0000   YZ=              0.0000

 Normal termination of Gaussian 09 at Sun Mar 19 01:50:49 2017.
