 Gaussian 09, Revision D.01,
 Gaussian 09:  EM64L-G09RevD.01 24-Apr-2013

 ------------------------------------------
 #p b3lyp empiricaldispersion=gd3bj cc-pVTZ
 ------------------------------------------

 ---------------------
 benzene dimer 3.90425
 ---------------------
 Symbolic Z-matrix:
 Charge =  0 Multiplicity = 1

                         Standard orientation:
 ---------------------------------------------------------------------
 Center     Atomic      Atomic             Coordinates (Angstroms)
 Number     Number       Type             X           Y           Z
 ---------------------------------------------------------------------
      1          6           0       -1.391500    0.000000   -3.200000
      2          1           0       -2.471500    0.000000   -3.200000
      3          6           0       -0.695750    1.205074   -3.200000
      4          1           0       -1.235750    2.140382   -3.200000
      5          6           0       -0.695750   -1.205074   -3.200000
      6          1           0       -1.235750   -2.140382   -3.200000
      7          6           0        0.695750    1.205074   -3.200000
      8          1           0        1.235750    2.140382   -3.200000
      9          6           0        0.695750   -1.205074   -3.200000
     10          1           0        1.235750   -2.140382   -3.200000
     11          6           0        1.391500    0.000000   -3.200000
     12          1           0        2.471500    0.000000   -3.200000
     13          6           0        0.000000    0.000000    1.808500
     14          6           0        0.000000   -1.205074    2.504250
     15          1           0        0.000000   -2.140382    1.964250
     16          1           0        0.000000    0.000000    0.728500
     17          6           0        0.000000   -1.205074    3.895750
     18          1           0        0.000000   -2.140382    4.435750
     19          6           0        0.000000    0.000000    4.591500
     20          1           0        0.000000    0.000000    5.671500
     21          6           0        0.000000    1.205074    3.895750
     22          1           0        0.000000    2.140382    4.435750
     23          6           0        0.000000    1.205074    2.504250
     24          1           0        0.000000    2.140382    1.964250
 ---------------------------------------------------------------------

 SCF Done:  E(RB3LYP) =  -464.705997410     A.U. after   12 cycles

 The electronic state is 1-A1.
 Alpha  occ. eigenvalues --  -10.18036 -10.18011 -10.18007 -10.17952 -10.17947
 Alpha  occ. eigenvalues --  -10.17923 -10.17552 -10.17520 -10.17487 -10.17450
 Alpha  occ. eigenvalues --  -10.17444 -10.17353  -0.85942  -0.85428  -0.75092
 Alpha  occ. eigenvalues --   -0.75084  -0.74595  -0.74562  -0.60776  -0.60774
 Alpha  occ. eigenvalues --   -0.60280  -0.60258  -0.52975  -0.52470  -0.46610
 Alpha  occ. eigenvalues --   -0.46110  -0.45223  -0.44714  -0.42711  -0.42700
 Alpha  occ. eigenvalues --   -0.42231  -0.42169  -0.37410  -0.36891  -0.34969
 Alpha  occ. eigenvalues --   -0.34961  -0.34484  -0.34429  -0.26024  -0.26015
 Alpha  occ. eigenvalues --   -0.25524  -0.25487
 Alpha virt. eigenvalues --   -0.01417  -0.01414  -0.00922  -0.00897   0.03393
 Alpha virt. eigenvalues --    0.04563   0.06597   0.07007   0.07400   0.07585
 Alpha virt. eigenvalues --    0.09991   0.10077   0.10327   0.10520   0.12685

 Mulliken charges:
               1
     1  C   -0.105896
     2  H    0.107039
     3  C   -0.107304
     4  H    0.106914
     5  C   -0.107304
     6  H    0.106914
     7  C   -0.107304
     8  H    0.106914
     9  C   -0.107304
    10  H    0.106914
    11  C   -0.105896
    12  H    0.107039
    13  C   -0.112028
    14  C   -0.114265
    15  H    0.105579
    16  H    0.131802
    17  C   -0.103688
    18  H    0.104263
    19  C   -0.108617
    20  H    0.104342
    21  C   -0.103688
    22  H    0.104263
    23  C   -0.114265
    24  H    0.105579
 Sum of Mulliken charges =   0.00000

 Dipole moment (field-independent basis, Debye):
    X=              0.0000    Y=              0.0000    Z=             -0.1946  Tot=              0.1946
 Quadrupole moment (field-independent basis, Debye-Ang):
   XX=            -71.5853   YY=            -64.2965   ZZ=            -72.0659
   XY=              0.0000   XZ=              0.0000   YZ=              0.0000

 Normal termination of Gaussian 09 at Sun Mar 19 00:25:42 2017.
