 Gaussian 09, Revision D.01,
 Gaussian 09:  EM64L-G09RevD.01 24-Apr-2013

 --------------------
 #p m062x may-cc-pVQZ
 --------------------

 ---------------------
 benzene dimer 2.10425
 ---------------------
 Symbolic Z-matrix:
 Charge =  0 Multiplicity = 1

                         Standard orientation:
 ---------------------------------------------------------------------
 Center     Atomic      Atomic             Coordinates (Angstroms)
 Number     Number       Type             X           Y           Z
 ---------------------------------------------------------------------
      1          6           0       -1.391500    0.000000   -2.300000
      2          1           0       -2.471500    0.000000   -2.300000
      3          6           0       -0.695750    1.205074   -2.300000
      4          1           0       -1.235750    2.140382   -2.300000
      5          6           0       -0.695750   -1.205074   -2.300000
      6          1           0       -1.235750   -2.140382   -2.300000
      7          6           0        0.695750    1.205074   -2.300000
      8          1           0        1.235750    2.140382   -2.300000
      9          6           0        0.695750   -1.205074   -2.300000
     10          1           0        1.235750   -2.140382   -2.300000
     11          6           0        1.391500    0.000000   -2.300000
     12          1           0        2.471500    0.000000   -2.300000
     13          6           0        0.000000    0.000000    0.908500
     14          6           0        0.000000   -1.205074    1.604250
     15          1           0        0.000000   -2.140382    1.064250
     16          1           0        0.000000    0.000000   -0.171500
     17          6           0        0.000000   -1.205074    2.995750
     18          1           0        0.000000   -2.140382    3.535750
     19          6           0        0.000000    0.000000    3.691500
     20          1           0        0.000000    0.000000    4.771500
     21          6           0        0.000000    1.205074    2.995750
     22          1           0        0.000000    2.140382    3.535750
     23          6           0        0.000000    1.205074    1.604250
     24          1           0        0.000000    2.140382    1.064250
 ---------------------------------------------------------------------

 SCF Done:  E(RM062X) =  -464.477232792     A.U. after   11 cycles

 The electronic state is 1-A1.
 Alpha  occ. eigenvalues --  -10.54916 -10.54884 -10.54869 -10.54800 -10.54784
 Alpha  occ. eigenvalues --  -10.54752 -10.53540 -10.53498 -10.53424 -10.53313
 Alpha  occ. eigenvalues --  -10.53308 -10.52850  -0.96833  -0.95177  -0.85055
 Alpha  occ. eigenvalues --   -0.85016  -0.83571  -0.83448  -0.69304  -0.69299
 Alpha  occ. eigenvalues --   -0.67867  -0.67839  -0.60887  -0.59452  -0.54047
 Alpha  occ. eigenvalues --   -0.52792  -0.52002  -0.50514  -0.49582  -0.49536
 Alpha  occ. eigenvalues --   -0.48778  -0.48182  -0.44085  -0.43289  -0.40953
 Alpha  occ. eigenvalues --   -0.40927  -0.39548  -0.38877  -0.32002  -0.31764
 Alpha  occ. eigenvalues --   -0.30192  -0.29743
 Alpha virt. eigenvalues --   -0.00340   0.00633   0.00686   0.00869   0.01019
 Alpha virt. eigenvalues --    0.01141   0.02301   0.02389   0.02572   0.02573
 Alpha virt. eigenvalues --    0.02859   0.03218   0.03924   0.04350   0.04481

 Mulliken charges:
               1
     1  C   -0.422405
     2  H    0.490104
     3  C   -0.521062
     4  H    0.489361
     5  C   -0.521062
     6  H    0.489361
     7  C   -0.521062
     8  H    0.489361
     9  C   -0.521062
    10  H    0.489361
    11  C   -0.422405
    12  H    0.490104
    13  C   -0.362214
    14  C   -0.494802
    15  H    0.502304
    16  H    0.245004
    17  C   -0.379801
    18  H    0.454537
    19  C   -0.485289
    20  H    0.429428
    21  C   -0.379801
    22  H    0.454537
    23  C   -0.494802
    24  H    0.502304
 Sum of Mulliken charges =   0.00000

 Dipole moment (field-independent basis, Debye):
    X=              0.0000    Y=              0.0000    Z=             -0.6641  Tot=              0.6641
 Quadrupole moment (field-independent basis, Debye-Ang):
   XX=            -71.5387   YY=            -64.2758   ZZ=            -72.6856
   XY=              0.0000   XZ=              0.0000   YZ=              0.0000

 Normal termination of Gaussian 09 at Sun Mar 19 03:38:08 2017.
