 Gaussian 09, Revision D.01,
 Gaussian 09:  EM64L-G09RevD.01 24-Apr-2013

 ------------------------------------------
 #p b3lyp empiricaldispersion=gd3bj cc-pVDZ
 ------------------------------------------

 ---------------
 benzene monomer
 ---------------
 Symbolic Z-matrix:
 Charge =  0 Multiplicity = 1

                         Standard orientation:
 ---------------------------------------------------------------------
 Center     Atomic      Atomic             Coordinates (Angstroms)
 Number     Number       Type             X           Y           Z
 ---------------------------------------------------------------------
      1          6           0        0.000000    1.391500    0.000000
      2          1           0        0.000000    2.471500    0.000000
      3          6           0        1.205074    0.695750    0.000000
      4          1           0        2.140382    1.235750    0.000000
      5          6           0       -1.205074    0.695750    0.000000
      6          1           0       -2.140382    1.235750    0.000000
      7          6           0        1.205074   -0.695750    0.000000
      8          1           0        2.140382   -1.235750    0.000000
      9          6           0       -1.205074   -0.695750    0.000000
     10          1           0       -2.140382   -1.235750    0.000000
     11          6           0        0.000000   -1.391500    0.000000
     12          1           0        0.000000   -2.471500    0.000000
 ---------------------------------------------------------------------

 SCF Done:  E(RB3LYP) =  -232.280973193     A.U. after   10 cycles

 The electronic state is 1-A1G.
 Alpha  occ. eigenvalues --  -10.18831 -10.18809 -10.18809 -10.18758 -10.18758
 Alpha  occ. eigenvalues --  -10.18735  -0.85552  -0.74727  -0.74727  -0.60354
 Alpha  occ. eigenvalues --   -0.60354  -0.52397  -0.46186  -0.44623  -0.42185
 Alpha  occ. eigenvalues --   -0.42185  -0.36774  -0.34399  -0.34399  -0.25377
 Alpha  occ. eigenvalues --   -0.25377
 Alpha virt. eigenvalues --   -0.00479  -0.00479   0.05988   0.09976   0.09976
 Alpha virt. eigenvalues --    0.13503   0.13503   0.15408   0.15544   0.28014
 Alpha virt. eigenvalues --    0.28014   0.29940   0.29940   0.40620   0.40681

 Mulliken charges:
               1
     1  C    0.036348
     2  H   -0.036348
     3  C    0.036348
     4  H   -0.036348
     5  C    0.036348
     6  H   -0.036348
     7  C    0.036348
     8  H   -0.036348
     9  C    0.036348
    10  H   -0.036348
    11  C    0.036348
    12  H   -0.036348
 Sum of Mulliken charges =   0.00000

 Dipole moment (field-independent basis, Debye):
    X=              0.0000    Y=              0.0000    Z=              0.0000  Tot=              0.0000
 Quadrupole moment (field-independent basis, Debye-Ang):
   XX=            -32.0318   YY=            -32.0318   ZZ=            -38.8878
   XY=              0.0000   XZ=              0.0000   YZ=              0.0000

 Normal termination of Gaussian 09 at Sun Mar 19 01:02:27 2017.
