 Gaussian 09, Revision D.01,
 Gaussian 09:  EM64L-G09RevD.01 24-Apr-2013

 ------------------------------------------
 #p b3lyp empiricaldispersion=gd3bj cc-pVDZ
 ------------------------------------------

 ---------------------
 benzene dimer 3.10425
 ---------------------
 Symbolic Z-matrix:
 Charge =  0 Multiplicity = 1

                         Standard orientation:
 ---------------------------------------------------------------------
 Center     Atomic      Atomic             Coordinates (Angstroms)
 Number     Number       Type             X           Y           Z
 ---------------------------------------------------------------------
      1          6           0       -1.391500    0.000000   -2.800000
      2          1           0       -2.471500    0.000000   -2.800000
      3          6           0       -0.695750    1.205074   -2.800000
      4          1           0       -1.235750    2.140382   -2.800000
      5          6           0       -0.695750   -1.205074   -2.800000
      6          1           0       -1.235750   -2.140382   -2.800000
      7          6           0        0.695750    1.205074   -2.800000
      8          1           0        1.235750    2.140382   -2.800000
      9          6           0        0.695750   -1.205074   -2.800000
     10          1           0        1.235750   -2.140382   -2.800000
     11          6           0        1.391500    0.000000   -2.800000
     12          1           0        2.471500    0.000000   -2.800000
     13          6           0        0.000000    0.000000    1.408500
     14          6           0        0.000000   -1.205074    2.104250
     15          1           0        0.000000   -2.140382    1.564250
     16          1           0        0.000000    0.000000    0.328500
     17          6           0        0.000000   -1.205074    3.495750
     18          1           0        0.000000   -2.140382    4.035750
     19          6           0        0.000000    0.000000    4.191500
     20          1           0        0.000000    0.000000    5.271500
     21          6           0        0.000000    1.205074    3.495750
     22          1           0        0.000000    2.140382    4.035750
     23          6           0        0.000000    1.205074    2.104250
     24          1           0        0.000000    2.140382    1.564250
 ---------------------------------------------------------------------

 SCF Done:  E(RB3LYP) =  -464.565454398     A.U. after   13 cycles

 The electronic state is 1-A1.
 Alpha  occ. eigenvalues --  -10.19141 -10.19120 -10.19112 -10.19070 -10.19060
 Alpha  occ. eigenvalues --  -10.19041 -10.18399 -10.18368 -10.18332 -10.18278
 Alpha  occ. eigenvalues --  -10.18272 -10.18100  -0.85875  -0.85074  -0.75038
 Alpha  occ. eigenvalues --   -0.75023  -0.74275  -0.74214  -0.60644  -0.60640
 Alpha  occ. eigenvalues --   -0.59886  -0.59846  -0.52678  -0.51907  -0.46448
 Alpha  occ. eigenvalues --   -0.45693  -0.44923  -0.44138  -0.42475  -0.42457
 Alpha  occ. eigenvalues --   -0.41747  -0.41665  -0.37114  -0.36314  -0.34683
 Alpha  occ. eigenvalues --   -0.34671  -0.33946  -0.33808  -0.25719  -0.25713
 Alpha  occ. eigenvalues --   -0.24942  -0.24861
 Alpha virt. eigenvalues --   -0.00801  -0.00796  -0.00031   0.00011   0.05358
 Alpha virt. eigenvalues --    0.06813   0.09191   0.09815   0.10699   0.10766
 Alpha virt. eigenvalues --    0.13290   0.13311   0.14049   0.14148   0.15110

 Mulliken charges:
               1
     1  C    0.036513
     2  H   -0.034031
     3  C    0.034567
     4  H   -0.034713
     5  C    0.034567
     6  H   -0.034713
     7  C    0.034567
     8  H   -0.034713
     9  C    0.034567
    10  H   -0.034713
    11  C    0.036513
    12  H   -0.034031
    13  C    0.040075
    14  C    0.031187
    15  H   -0.039954
    16  H   -0.018448
    17  C    0.036524
    18  H   -0.038759
    19  C    0.034683
    20  H   -0.038688
    21  C    0.036524
    22  H   -0.038759
    23  C    0.031187
    24  H   -0.039954
 Sum of Mulliken charges =   0.00000

 Dipole moment (field-independent basis, Debye):
    X=              0.0000    Y=              0.0000    Z=             -0.3363  Tot=              0.3363
 Quadrupole moment (field-independent basis, Debye-Ang):
   XX=            -70.7651   YY=            -64.1832   ZZ=            -71.3574
   XY=              0.0000   XZ=              0.0000   YZ=              0.0000

 Normal termination of Gaussian 09 at Sun Mar 19 00:51:45 2017.
