 Gaussian 09, Revision D.01,
 Gaussian 09:  EM64L-G09RevD.01 24-Apr-2013

 --------------------
 #p m062x may-cc-pVQZ
 --------------------

 ----------------------------
 benzene dimer 2.495750000000
 ----------------------------
 Symbolic Z-matrix:
 Charge =  0 Multiplicity = 1

                         Standard orientation:
 ---------------------------------------------------------------------
 Center     Atomic      Atomic             Coordinates (Angstroms)
 Number     Number       Type             X           Y           Z
 ---------------------------------------------------------------------
      1          6           0       -1.391500    0.000000   -2.495750
      2          1           0       -2.471500    0.000000   -2.495750
      3          6           0       -0.695750    1.205074   -2.495750
      4          1           0       -1.235750    2.140382   -2.495750
      5          6           0       -0.695750   -1.205074   -2.495750
      6          1           0       -1.235750   -2.140382   -2.495750
      7          6           0        0.695750    1.205074   -2.495750
      8          1           0        1.235750    2.140382   -2.495750
      9          6           0        0.695750   -1.205074   -2.495750
     10          1           0        1.235750   -2.140382   -2.495750
     11          6           0        1.391500    0.000000   -2.495750
     12          1           0        2.471500    0.000000   -2.495750
     13          6           0        0.000000    0.000000    1.104250
     14          6           0        0.000000   -1.205074    1.800000
     15          1           0        0.000000   -2.140382    1.260000
     16          1           0        0.000000    0.000000    0.024250
     17          6           0        0.000000   -1.205074    3.191500
     18          1           0        0.000000   -2.140382    3.731500
     19          6           0        0.000000    0.000000    3.887250
     20          1           0        0.000000    0.000000    4.967250
     21          6           0        0.000000    1.205074    3.191500
     22          1           0        0.000000    2.140382    3.731500
     23          6           0        0.000000    1.205074    1.800000
     24          1           0        0.000000    2.140382    1.260000
 ---------------------------------------------------------------------

 SCF Done:  E(RM062X) =  -464.478727504     A.U. after   10 cycles

 The electronic state is 1-A1.
 Alpha  occ. eigenvalues --  -10.54798 -10.54766 -10.54753 -10.54683 -10.54669
 Alpha  occ. eigenvalues --  -10.54635 -10.53715 -10.53669 -10.53607 -10.53533
 Alpha  occ. eigenvalues --  -10.53525 -10.53263  -0.96602  -0.95396  -0.84892
 Alpha  occ. eigenvalues --   -0.84865  -0.83762  -0.83669  -0.69176  -0.69170
 Alpha  occ. eigenvalues --   -0.68061  -0.68017  -0.60711  -0.59591  -0.53940
 Alpha  occ. eigenvalues --   -0.52884  -0.51871  -0.50720  -0.49433  -0.49398
 Alpha  occ. eigenvalues --   -0.48505  -0.48356  -0.44427  -0.43473  -0.40827
 Alpha  occ. eigenvalues --   -0.40808  -0.39742  -0.39417  -0.31629  -0.31546
 Alpha  occ. eigenvalues --   -0.30364  -0.30131
 Alpha virt. eigenvalues --   -0.00319   0.00617   0.00818   0.00963   0.01144
 Alpha virt. eigenvalues --    0.01182   0.02217   0.02323   0.02378   0.02396
 Alpha virt. eigenvalues --    0.02901   0.03125   0.03885   0.04229   0.04312

 Mulliken charges:
               1
     1  C   -0.475024
     2  H    0.480601
     3  C   -0.487491
     4  H    0.481123
     5  C   -0.487491
     6  H    0.481123
     7  C   -0.487491
     8  H    0.481123
     9  C   -0.487491
    10  H    0.481123
    11  C   -0.475024
    12  H    0.480601
    13  C   -0.585302
    14  C   -0.416452
    15  H    0.492429
    16  H    0.373048
    17  C   -0.406245
    18  H    0.453215
    19  C   -0.447870
    20  H    0.428547
    21  C   -0.406245
    22  H    0.453215
    23  C   -0.416452
    24  H    0.492429
 Sum of Mulliken charges =   0.00000

 Dipole moment (field-independent basis, Debye):
    X=              0.0000    Y=              0.0000    Z=             -0.5106  Tot=              0.5106
 Quadrupole moment (field-independent basis, Debye-Ang):
   XX=            -71.6833   YY=            -64.2016   ZZ=            -72.4129
   XY=              0.0000   XZ=              0.0000   YZ=              0.0000

 1\1\GINC-HOLY2A14108\SP\RM062X\May-CC-pVQZ\C12H12\ROOT\19-Mar-2017\0\\
 #p m062x may-cc-pVQZ\\benzene dimer 2.495750000000\\0,1\C,0,1.3915,0.,
 2.49575\H,0,2.4715,0.,2.49575\C,0,0.69575,1.2050743494,2.49575\H,0,1.2
 3575,2.1403817855,2.49575\C,0,0.69575,-1.2050743494,2.49575\H,0,1.2357
 5,-2.1403817855,2.49575\C,0,-0.69575,1.2050743494,2.49575\H,0,-1.23575
 ,2.1403817855,2.49575\C,0,-0.69575,-1.2050743494,2.49575\H,0,-1.23575,
 -2.1403817855,2.49575\C,0,-1.3915,0.,2.49575\H,0,-2.4715,0.,2.49575\C,
 0,0.,0.,-1.10425\C,0,0.,-1.2050743494,-1.8\H,0,0.,-2.1403817855,-1.26\

 Normal termination of Gaussian 09 at Sun Mar 19 04:23:44 2017.
