 Gaussian 09, Revision D.01,
 Gaussian 09:  EM64L-G09RevD.01 24-Apr-2013

 -----------------------------------------
 #p b3lyp empiricaldispersion=gd3bj 6-31g*
 -----------------------------------------

 ---------------
 benzene monomer
 ---------------
 Symbolic Z-matrix:
 Charge =  0 Multiplicity = 1

                         Standard orientation:
 ---------------------------------------------------------------------
 Center     Atomic      Atomic             Coordinates (Angstroms)
 Number     Number       Type             X           Y           Z
 ---------------------------------------------------------------------
      1          6           0        0.000000    1.391500    0.000000
      2          1           0        0.000000    2.471500    0.000000
      3          6           0        1.205074    0.695750    0.000000
      4          1           0        2.140382    1.235750    0.000000
      5          6           0       -1.205074    0.695750    0.000000
      6          1           0       -2.140382    1.235750    0.000000
      7          6           0        1.205074   -0.695750    0.000000
      8          1           0        2.140382   -1.235750    0.000000
      9          6           0       -1.205074   -0.695750    0.000000
     10          1           0       -2.140382   -1.235750    0.000000
     11          6           0        0.000000   -1.391500    0.000000
     12          1           0        0.000000   -2.471500    0.000000
 ---------------------------------------------------------------------

 SCF Done:  E(RB3LYP) =  -232.267262713     A.U. after   10 cycles

 The electronic state is 1-A1G.
 Alpha  occ. eigenvalues --  -10.18542 -10.18515 -10.18515 -10.18457 -10.18457
 Alpha  occ. eigenvalues --  -10.18430  -0.84870  -0.74135  -0.74135  -0.59878
 Alpha  occ. eigenvalues --   -0.59878  -0.52093  -0.46002  -0.43921  -0.41833
 Alpha  occ. eigenvalues --   -0.41833  -0.36082  -0.34049  -0.34049  -0.24672
 Alpha  occ. eigenvalues --   -0.24672
 Alpha virt. eigenvalues --    0.00488   0.00488   0.09283   0.14656   0.14656
 Alpha virt. eigenvalues --    0.16667   0.18417   0.18417   0.19342   0.30526
 Alpha virt. eigenvalues --    0.30526   0.32187   0.32187   0.47368   0.52717

 Mulliken charges:
               1
     1  C   -0.127687
     2  H    0.127687
     3  C   -0.127687
     4  H    0.127687
     5  C   -0.127687
     6  H    0.127687
     7  C   -0.127687
     8  H    0.127687
     9  C   -0.127687
    10  H    0.127687
    11  C   -0.127687
    12  H    0.127687
 Sum of Mulliken charges =   0.00000

 Dipole moment (field-independent basis, Debye):
    X=              0.0000    Y=              0.0000    Z=              0.0000  Tot=              0.0000
 Quadrupole moment (field-independent basis, Debye-Ang):
   XX=            -31.4069   YY=            -31.4069   ZZ=            -38.4895
   XY=              0.0000   XZ=              0.0000   YZ=              0.0000

 Normal termination of Gaussian 09 at Sun Mar 19 01:40:20 2017.
