 Gaussian 09, Revision D.01,
 Gaussian 09:  EM64L-G09RevD.01 24-Apr-2013

 -------------
 #p mp2 6-31g*
 -------------

 ---------------------
 benzene dimer 2.70425
 ---------------------
 Symbolic Z-matrix:
 Charge =  0 Multiplicity = 1

                         Standard orientation:
 ---------------------------------------------------------------------
 Center     Atomic      Atomic             Coordinates (Angstroms)
 Number     Number       Type             X           Y           Z
 ---------------------------------------------------------------------
      1          6           0       -1.391500    0.000000   -2.600000
      2          1           0       -2.471500    0.000000   -2.600000
      3          6           0       -0.695750    1.205074   -2.600000
      4          1           0       -1.235750    2.140382   -2.600000
      5          6           0       -0.695750   -1.205074   -2.600000
      6          1           0       -1.235750   -2.140382   -2.600000
      7          6           0        0.695750    1.205074   -2.600000
      8          1           0        1.235750    2.140382   -2.600000
      9          6           0        0.695750   -1.205074   -2.600000
     10          1           0        1.235750   -2.140382   -2.600000
     11          6           0        1.391500    0.000000   -2.600000
     12          1           0        2.471500    0.000000   -2.600000
     13          6           0        0.000000    0.000000    1.208500
     14          6           0        0.000000   -1.205074    1.904250
     15          1           0        0.000000   -2.140382    1.364250
     16          1           0        0.000000    0.000000    0.128500
     17          6           0        0.000000   -1.205074    3.295750
     18          1           0        0.000000   -2.140382    3.835750
     19          6           0        0.000000    0.000000    3.991500
     20          1           0        0.000000    0.000000    5.071500
     21          6           0        0.000000    1.205074    3.295750
     22          1           0        0.000000    2.140382    3.835750
     23          6           0        0.000000    1.205074    1.904250
     24          1           0        0.000000    2.140382    1.364250
 ---------------------------------------------------------------------

 SCF Done:  E(RHF) =  -461.406434988     A.U. after   12 cycles
 E2 =    -0.1512752659D+01 EUMP2 =    -0.46291918764665D+03

 The electronic state is 1-A1.
 Alpha  occ. eigenvalues --  -11.23623 -11.23573 -11.23559 -11.23451 -11.23436
 Alpha  occ. eigenvalues --  -11.23384 -11.22515 -11.22456 -11.22354 -11.22266
 Alpha  occ. eigenvalues --  -11.22251 -11.21956  -1.14991  -1.13752  -1.01411
 Alpha  occ. eigenvalues --   -1.01383  -1.00247  -1.00151  -0.82286  -0.82282
 Alpha  occ. eigenvalues --   -0.81136  -0.81090  -0.70898  -0.69733  -0.64346
 Alpha  occ. eigenvalues --   -0.63228  -0.61656  -0.60463  -0.58738  -0.58707
 Alpha  occ. eigenvalues --   -0.57627  -0.57572  -0.50252  -0.49342  -0.49322
 Alpha  occ. eigenvalues --   -0.48889  -0.48222  -0.47754  -0.33527  -0.33509
 Alpha  occ. eigenvalues --   -0.32345  -0.32126
 Alpha virt. eigenvalues --    0.14308   0.14334   0.15512   0.15584   0.23087
 Alpha virt. eigenvalues --    0.24351   0.28786   0.29102   0.30041   0.30428
 Alpha virt. eigenvalues --    0.32906   0.32935   0.33412   0.33732   0.33887

 Mulliken charges:
               1
     1  C   -0.199627
     2  H    0.204153
     3  C   -0.203394
     4  H    0.202845
     5  C   -0.203394
     6  H    0.202845
     7  C   -0.203394
     8  H    0.202845
     9  C   -0.203394
    10  H    0.202845
    11  C   -0.199627
    12  H    0.204153
    13  C   -0.211028
    14  C   -0.206267
    15  H    0.195863
    16  H    0.238253
    17  C   -0.199281
    18  H    0.195760
    19  C   -0.202272
    20  H    0.196044
    21  C   -0.199281
    22  H    0.195760
    23  C   -0.206267
    24  H    0.195863
 Sum of Mulliken charges =   0.00000

 Dipole moment (field-independent basis, Debye):
    X=              0.0000    Y=              0.0000    Z=             -0.4838  Tot=              0.4838
 Quadrupole moment (field-independent basis, Debye-Ang):
   XX=            -70.9801   YY=            -62.9154   ZZ=            -71.8741
   XY=              0.0000   XZ=              0.0000   YZ=              0.0000

 Normal termination of Gaussian 09 at Sun Mar 19 00:46:35 2017.
