 Gaussian 09, Revision D.01,
 Gaussian 09:  EM64L-G09RevD.01 24-Apr-2013

 -----------------------------------------
 #p b3lyp empiricaldispersion=gd3bj 6-31g*
 -----------------------------------------

 ---------------------
 benzene dimer 4.90425
 ---------------------
 Symbolic Z-matrix:
 Charge =  0 Multiplicity = 1

                         Standard orientation:
 ---------------------------------------------------------------------
 Center     Atomic      Atomic             Coordinates (Angstroms)
 Number     Number       Type             X           Y           Z
 ---------------------------------------------------------------------
      1          6           0       -1.391500    0.000000   -3.700000
      2          1           0       -2.471500    0.000000   -3.700000
      3          6           0       -0.695750    1.205074   -3.700000
      4          1           0       -1.235750    2.140382   -3.700000
      5          6           0       -0.695750   -1.205074   -3.700000
      6          1           0       -1.235750   -2.140382   -3.700000
      7          6           0        0.695750    1.205074   -3.700000
      8          1           0        1.235750    2.140382   -3.700000
      9          6           0        0.695750   -1.205074   -3.700000
     10          1           0        1.235750   -2.140382   -3.700000
     11          6           0        1.391500    0.000000   -3.700000
     12          1           0        2.471500    0.000000   -3.700000
     13          6           0        0.000000    0.000000    2.308500
     14          6           0        0.000000   -1.205074    3.004250
     15          1           0        0.000000   -2.140382    2.464250
     16          1           0        0.000000    0.000000    1.228500
     17          6           0        0.000000   -1.205074    4.395750
     18          1           0        0.000000   -2.140382    4.935750
     19          6           0        0.000000    0.000000    5.091500
     20          1           0        0.000000    0.000000    6.171500
     21          6           0        0.000000    1.205074    4.395750
     22          1           0        0.000000    2.140382    4.935750
     23          6           0        0.000000    1.205074    3.004250
     24          1           0        0.000000    2.140382    2.464250
 ---------------------------------------------------------------------

 SCF Done:  E(RB3LYP) =  -464.535085395     A.U. after   12 cycles

 The electronic state is 1-A1.
 Alpha  occ. eigenvalues --  -10.18642 -10.18616 -10.18614 -10.18558 -10.18556
 Alpha  occ. eigenvalues --  -10.18530 -10.18360 -10.18330 -10.18311 -10.18268
 Alpha  occ. eigenvalues --  -10.18267 -10.18215  -0.84974  -0.84678  -0.74238
 Alpha  occ. eigenvalues --   -0.74234  -0.73951  -0.73934  -0.59977  -0.59976
 Alpha  occ. eigenvalues --   -0.59689  -0.59678  -0.52189  -0.51897  -0.46095
 Alpha  occ. eigenvalues --   -0.45803  -0.44021  -0.43727  -0.41932  -0.41927
 Alpha  occ. eigenvalues --   -0.41652  -0.41620  -0.36192  -0.35895  -0.34147
 Alpha  occ. eigenvalues --   -0.34143  -0.33864  -0.33839  -0.24781  -0.24776
 Alpha  occ. eigenvalues --   -0.24492  -0.24476
 Alpha virt. eigenvalues --    0.00382   0.00385   0.00670   0.00684   0.09201
 Alpha virt. eigenvalues --    0.09494   0.14568   0.14582   0.14816   0.14923
 Alpha virt. eigenvalues --    0.16564   0.16857   0.18331   0.18340   0.18589

 Mulliken charges:
               1
     1  C   -0.128040
     2  H    0.128456
     3  C   -0.128277
     4  H    0.128083
     5  C   -0.128277
     6  H    0.128083
     7  C   -0.128277
     8  H    0.128083
     9  C   -0.128277
    10  H    0.128083
    11  C   -0.128040
    12  H    0.128456
    13  C   -0.130443
    14  C   -0.128038
    15  H    0.127534
    16  H    0.134845
    17  C   -0.127777
    18  H    0.126671
    19  C   -0.127956
    20  H    0.126720
    21  C   -0.127777
    22  H    0.126671
    23  C   -0.128038
    24  H    0.127534
 Sum of Mulliken charges =   0.00000

 Dipole moment (field-independent basis, Debye):
    X=              0.0000    Y=              0.0000    Z=             -0.0819  Tot=              0.0819
 Quadrupole moment (field-independent basis, Debye-Ang):
   XX=            -69.8680   YY=            -62.8511   ZZ=            -70.2347
   XY=              0.0000   XZ=              0.0000   YZ=              0.0000

 Normal termination of Gaussian 09 at Sun Mar 19 00:57:23 2017.
