 Gaussian 09, Revision D.01,
 Gaussian 09:  EM64L-G09RevD.01 24-Apr-2013

 ---------------
 #p m062x 6-31g*
 ---------------

 ----------------------------
 benzene dimer 2.495750000000
 ----------------------------
 Symbolic Z-matrix:
 Charge =  0 Multiplicity = 1

                         Standard orientation:
 ---------------------------------------------------------------------
 Center     Atomic      Atomic             Coordinates (Angstroms)
 Number     Number       Type             X           Y           Z
 ---------------------------------------------------------------------
      1          6           0       -1.391500    0.000000   -2.495750
      2          1           0       -2.471500    0.000000   -2.495750
      3          6           0       -0.695750    1.205074   -2.495750
      4          1           0       -1.235750    2.140382   -2.495750
      5          6           0       -0.695750   -1.205074   -2.495750
      6          1           0       -1.235750   -2.140382   -2.495750
      7          6           0        0.695750    1.205074   -2.495750
      8          1           0        1.235750    2.140382   -2.495750
      9          6           0        0.695750   -1.205074   -2.495750
     10          1           0        1.235750   -2.140382   -2.495750
     11          6           0        1.391500    0.000000   -2.495750
     12          1           0        2.471500    0.000000   -2.495750
     13          6           0        0.000000    0.000000    1.104250
     14          6           0        0.000000   -1.205074    1.800000
     15          1           0        0.000000   -2.140382    1.260000
     16          1           0        0.000000    0.000000    0.024250
     17          6           0        0.000000   -1.205074    3.191500
     18          1           0        0.000000   -2.140382    3.731500
     19          6           0        0.000000    0.000000    3.887250
     20          1           0        0.000000    0.000000    4.967250
     21          6           0        0.000000    1.205074    3.191500
     22          1           0        0.000000    2.140382    3.731500
     23          6           0        0.000000    1.205074    1.800000
     24          1           0        0.000000    2.140382    1.260000
 ---------------------------------------------------------------------

 SCF Done:  E(RM062X) =  -464.276811476     A.U. after   14 cycles

 The electronic state is 1-A1.
 Alpha  occ. eigenvalues --  -10.55184 -10.55154 -10.55139 -10.55076 -10.55058
 Alpha  occ. eigenvalues --  -10.55029 -10.54014 -10.53966 -10.53910 -10.53819
 Alpha  occ. eigenvalues --  -10.53812 -10.53477  -0.95823  -0.94517  -0.84183
 Alpha  occ. eigenvalues --   -0.84153  -0.82965  -0.82856  -0.68508  -0.68502
 Alpha  occ. eigenvalues --   -0.67308  -0.67248  -0.60069  -0.58858  -0.53481
 Alpha  occ. eigenvalues --   -0.52333  -0.50919  -0.49668  -0.48809  -0.48773
 Alpha  occ. eigenvalues --   -0.47754  -0.47656  -0.43455  -0.42369  -0.40174
 Alpha  occ. eigenvalues --   -0.40155  -0.39006  -0.38645  -0.30564  -0.30526
 Alpha  occ. eigenvalues --   -0.29260  -0.29056
 Alpha virt. eigenvalues --    0.03435   0.03465   0.04757   0.04793   0.13316
 Alpha virt. eigenvalues --    0.14566   0.18819   0.19248   0.20214   0.20298
 Alpha virt. eigenvalues --    0.21365   0.22622   0.22802   0.22818   0.23540

 Mulliken charges:
               1
     1  C   -0.160760
     2  H    0.167203
     3  C   -0.165261
     4  H    0.165703
     5  C   -0.165261
     6  H    0.165703
     7  C   -0.165261
     8  H    0.165703
     9  C   -0.165261
    10  H    0.165703
    11  C   -0.160760
    12  H    0.167203
    13  C   -0.142119
    14  C   -0.165662
    15  H    0.154192
    16  H    0.167387
    17  C   -0.163682
    18  H    0.157664
    19  C   -0.162996
    20  H    0.158050
    21  C   -0.163682
    22  H    0.157664
    23  C   -0.165662
    24  H    0.154192
 Sum of Mulliken charges =   0.00000

 Dipole moment (field-independent basis, Debye):
    X=              0.0000    Y=              0.0000    Z=             -0.5295  Tot=              0.5295
 Quadrupole moment (field-independent basis, Debye-Ang):
   XX=            -69.8609   YY=            -62.5462   ZZ=            -70.5761
   XY=              0.0000   XZ=              0.0000   YZ=              0.0000

 Normal termination of Gaussian 09 at Sun Mar 19 01:01:47 2017.
