 Gaussian 09, Revision D.01,
 Gaussian 09:  EM64L-G09RevD.01 24-Apr-2013

 ----------------------------------------------
 #p b3lyp empiricaldispersion=gd3bj jul-cc-pVDZ
 ----------------------------------------------

 ---------------------
 benzene dimer 3.00425
 ---------------------
 Symbolic Z-matrix:
 Charge =  0 Multiplicity = 1

                         Standard orientation:
 ---------------------------------------------------------------------
 Center     Atomic      Atomic             Coordinates (Angstroms)
 Number     Number       Type             X           Y           Z
 ---------------------------------------------------------------------
      1          6           0       -1.391500    0.000000   -2.750000
      2          1           0       -2.471500    0.000000   -2.750000
      3          6           0       -0.695750    1.205074   -2.750000
      4          1           0       -1.235750    2.140382   -2.750000
      5          6           0       -0.695750   -1.205074   -2.750000
      6          1           0       -1.235750   -2.140382   -2.750000
      7          6           0        0.695750    1.205074   -2.750000
      8          1           0        1.235750    2.140382   -2.750000
      9          6           0        0.695750   -1.205074   -2.750000
     10          1           0        1.235750   -2.140382   -2.750000
     11          6           0        1.391500    0.000000   -2.750000
     12          1           0        2.471500    0.000000   -2.750000
     13          6           0        0.000000    0.000000    1.358500
     14          6           0        0.000000   -1.205074    2.054250
     15          1           0        0.000000   -2.140382    1.514250
     16          1           0        0.000000    0.000000    0.278500
     17          6           0        0.000000   -1.205074    3.445750
     18          1           0        0.000000   -2.140382    3.985750
     19          6           0        0.000000    0.000000    4.141500
     20          1           0        0.000000    0.000000    5.221500
     21          6           0        0.000000    1.205074    3.445750
     22          1           0        0.000000    2.140382    3.985750
     23          6           0        0.000000    1.205074    2.054250
     24          1           0        0.000000    2.140382    1.514250
 ---------------------------------------------------------------------

 SCF Done:  E(RB3LYP) =  -464.583733718     A.U. after   11 cycles

 The electronic state is 1-A1.
 Alpha  occ. eigenvalues --  -10.19579 -10.19564 -10.19556 -10.19509 -10.19500
 Alpha  occ. eigenvalues --  -10.19478 -10.18838 -10.18810 -10.18770 -10.18716
 Alpha  occ. eigenvalues --  -10.18712 -10.18540  -0.86505  -0.85703  -0.75607
 Alpha  occ. eigenvalues --   -0.75591  -0.74841  -0.74783  -0.61166  -0.61163
 Alpha  occ. eigenvalues --   -0.60405  -0.60370  -0.53228  -0.52457  -0.46867
 Alpha  occ. eigenvalues --   -0.46111  -0.45518  -0.44734  -0.42969  -0.42949
 Alpha  occ. eigenvalues --   -0.42236  -0.42175  -0.37695  -0.36894  -0.35158
 Alpha  occ. eigenvalues --   -0.35144  -0.34417  -0.34272  -0.26348  -0.26336
 Alpha  occ. eigenvalues --   -0.25552  -0.25450
 Alpha virt. eigenvalues --   -0.02055  -0.01984  -0.01181  -0.01158  -0.00298
 Alpha virt. eigenvalues --    0.00933   0.01075   0.01686   0.02666   0.02929
 Alpha virt. eigenvalues --    0.03880   0.03893   0.05179   0.05210   0.05552

 Mulliken charges:
               1
     1  C    0.225066
     2  H   -0.209008
     3  C    0.202359
     4  H   -0.207067
     5  C    0.202359
     6  H   -0.207067
     7  C    0.202359
     8  H   -0.207067
     9  C    0.202359
    10  H   -0.207067
    11  C    0.225066
    12  H   -0.209008
    13  C    0.396197
    14  C    0.207255
    15  H   -0.193974
    16  H   -0.257594
    17  C    0.126518
    18  H   -0.199513
    19  C    0.168976
    20  H   -0.201437
    21  C    0.126518
    22  H   -0.199513
    23  C    0.207255
    24  H   -0.193974
 Sum of Mulliken charges =   0.00000

 Dipole moment (field-independent basis, Debye):
    X=              0.0000    Y=              0.0000    Z=             -0.3418  Tot=              0.3418
 Quadrupole moment (field-independent basis, Debye-Ang):
   XX=            -72.2121   YY=            -65.2282   ZZ=            -72.9149
   XY=              0.0000   XZ=              0.0000   YZ=              0.0000

 Normal termination of Gaussian 09 at Sun Mar 19 00:52:48 2017.
