 Gaussian 09, Revision D.01,
 Gaussian 09:  EM64L-G09RevD.01 24-Apr-2013

 ---------------
 #p m062x 6-31g*
 ---------------

 ---------------------
 benzene dimer 2.90425
 ---------------------
 Symbolic Z-matrix:
 Charge =  0 Multiplicity = 1

                         Standard orientation:
 ---------------------------------------------------------------------
 Center     Atomic      Atomic             Coordinates (Angstroms)
 Number     Number       Type             X           Y           Z
 ---------------------------------------------------------------------
      1          6           0       -1.391500    0.000000   -2.700000
      2          1           0       -2.471500    0.000000   -2.700000
      3          6           0       -0.695750    1.205074   -2.700000
      4          1           0       -1.235750    2.140382   -2.700000
      5          6           0       -0.695750   -1.205074   -2.700000
      6          1           0       -1.235750   -2.140382   -2.700000
      7          6           0        0.695750    1.205074   -2.700000
      8          1           0        1.235750    2.140382   -2.700000
      9          6           0        0.695750   -1.205074   -2.700000
     10          1           0        1.235750   -2.140382   -2.700000
     11          6           0        1.391500    0.000000   -2.700000
     12          1           0        2.471500    0.000000   -2.700000
     13          6           0        0.000000    0.000000    1.308500
     14          6           0        0.000000   -1.205074    2.004250
     15          1           0        0.000000   -2.140382    1.464250
     16          1           0        0.000000    0.000000    0.228500
     17          6           0        0.000000   -1.205074    3.395750
     18          1           0        0.000000   -2.140382    3.935750
     19          6           0        0.000000    0.000000    4.091500
     20          1           0        0.000000    0.000000    5.171500
     21          6           0        0.000000    1.205074    3.395750
     22          1           0        0.000000    2.140382    3.935750
     23          6           0        0.000000    1.205074    2.004250
     24          1           0        0.000000    2.140382    1.464250
 ---------------------------------------------------------------------

 SCF Done:  E(RM062X) =  -464.275533542     A.U. after   14 cycles

 The electronic state is 1-A1.
 Alpha  occ. eigenvalues --  -10.55057 -10.55026 -10.55015 -10.54947 -10.54935
 Alpha  occ. eigenvalues --  -10.54904 -10.54155 -10.54108 -10.54055 -10.53990
 Alpha  occ. eigenvalues --  -10.53981 -10.53759  -0.95664  -0.94684  -0.84048
 Alpha  occ. eigenvalues --   -0.84028  -0.83118  -0.83038  -0.68392  -0.68387
 Alpha  occ. eigenvalues --   -0.67468  -0.67417  -0.59945  -0.59005  -0.53382
 Alpha  occ. eigenvalues --   -0.52467  -0.50796  -0.49837  -0.48687  -0.48661
 Alpha  occ. eigenvalues --   -0.47800  -0.47736  -0.43471  -0.42523  -0.40061
 Alpha  occ. eigenvalues --   -0.40047  -0.39161  -0.38979  -0.30351  -0.30344
 Alpha  occ. eigenvalues --   -0.29402  -0.29296
 Alpha virt. eigenvalues --    0.03623   0.03636   0.04582   0.04632   0.13462
 Alpha virt. eigenvalues --    0.14263   0.19119   0.19312   0.19737   0.20010
 Alpha virt. eigenvalues --    0.21521   0.22472   0.22854   0.22898   0.23378

 Mulliken charges:
               1
     1  C   -0.161776
     2  H    0.165834
     3  C   -0.164450
     4  H    0.164570
     5  C   -0.164450
     6  H    0.164570
     7  C   -0.164450
     8  H    0.164570
     9  C   -0.164450
    10  H    0.164570
    11  C   -0.161776
    12  H    0.165834
    13  C   -0.157155
    14  C   -0.164408
    15  H    0.157857
    16  H    0.173994
    17  C   -0.162857
    18  H    0.158672
    19  C   -0.162946
    20  H    0.158987
    21  C   -0.162857
    22  H    0.158672
    23  C   -0.164408
    24  H    0.157857
 Sum of Mulliken charges =   0.00000

 Dipole moment (field-independent basis, Debye):
    X=              0.0000    Y=              0.0000    Z=             -0.3887  Tot=              0.3887
 Quadrupole moment (field-independent basis, Debye-Ang):
   XX=            -69.9523   YY=            -62.4798   ZZ=            -70.5525
   XY=              0.0000   XZ=              0.0000   YZ=              0.0000

 Normal termination of Gaussian 09 at Sun Mar 19 00:48:46 2017.
