 Gaussian 09, Revision D.01,
 Gaussian 09:  EM64L-G09RevD.01 24-Apr-2013

 --------------------
 #p m062x may-cc-pVQZ
 --------------------

 ---------------------
 benzene dimer 2.40425
 ---------------------
 Symbolic Z-matrix:
 Charge =  0 Multiplicity = 1

                         Standard orientation:
 ---------------------------------------------------------------------
 Center     Atomic      Atomic             Coordinates (Angstroms)
 Number     Number       Type             X           Y           Z
 ---------------------------------------------------------------------
      1          6           0       -1.391500    0.000000   -2.450000
      2          1           0       -2.471500    0.000000   -2.450000
      3          6           0       -0.695750    1.205074   -2.450000
      4          1           0       -1.235750    2.140382   -2.450000
      5          6           0       -0.695750   -1.205074   -2.450000
      6          1           0       -1.235750   -2.140382   -2.450000
      7          6           0        0.695750    1.205074   -2.450000
      8          1           0        1.235750    2.140382   -2.450000
      9          6           0        0.695750   -1.205074   -2.450000
     10          1           0        1.235750   -2.140382   -2.450000
     11          6           0        1.391500    0.000000   -2.450000
     12          1           0        2.471500    0.000000   -2.450000
     13          6           0        0.000000    0.000000    1.058500
     14          6           0        0.000000   -1.205074    1.754250
     15          1           0        0.000000   -2.140382    1.214250
     16          1           0        0.000000    0.000000   -0.021500
     17          6           0        0.000000   -1.205074    3.145750
     18          1           0        0.000000   -2.140382    3.685750
     19          6           0        0.000000    0.000000    3.841500
     20          1           0        0.000000    0.000000    4.921500
     21          6           0        0.000000    1.205074    3.145750
     22          1           0        0.000000    2.140382    3.685750
     23          6           0        0.000000    1.205074    1.754250
     24          1           0        0.000000    2.140382    1.214250
 ---------------------------------------------------------------------

 SCF Done:  E(RM062X) =  -464.478758652     A.U. after   11 cycles

 The electronic state is 1-A1.
 Alpha  occ. eigenvalues --  -10.54820 -10.54788 -10.54775 -10.54705 -10.54690
 Alpha  occ. eigenvalues --  -10.54657 -10.53683 -10.53638 -10.53574 -10.53495
 Alpha  occ. eigenvalues --  -10.53487 -10.53197  -0.96640  -0.95357  -0.84921
 Alpha  occ. eigenvalues --   -0.84892  -0.83728  -0.83628  -0.69199  -0.69193
 Alpha  occ. eigenvalues --   -0.68026  -0.67982  -0.60740  -0.59564  -0.53959
 Alpha  occ. eigenvalues --   -0.52863  -0.51895  -0.50682  -0.49459  -0.49422
 Alpha  occ. eigenvalues --   -0.48550  -0.48324  -0.44376  -0.43439  -0.40850
 Alpha  occ. eigenvalues --   -0.40829  -0.39707  -0.39325  -0.31696  -0.31586
 Alpha  occ. eigenvalues --   -0.30332  -0.30061
 Alpha virt. eigenvalues --   -0.00323   0.00622   0.00828   0.00910   0.01145
 Alpha virt. eigenvalues --    0.01151   0.02240   0.02338   0.02412   0.02435
 Alpha virt. eigenvalues --    0.02891   0.03138   0.03892   0.04255   0.04354

 Mulliken charges:
               1
     1  C   -0.469718
     2  H    0.481615
     3  C   -0.492317
     4  H    0.484110
     5  C   -0.492317
     6  H    0.484110
     7  C   -0.492317
     8  H    0.484110
     9  C   -0.492317
    10  H    0.484110
    11  C   -0.469718
    12  H    0.481615
    13  C   -0.510619
    14  C   -0.428998
    15  H    0.493790
    16  H    0.337587
    17  C   -0.400490
    18  H    0.453656
    19  C   -0.482552
    20  H    0.428704
    21  C   -0.400490
    22  H    0.453656
    23  C   -0.428998
    24  H    0.493790
 Sum of Mulliken charges =   0.00000

 Dipole moment (field-independent basis, Debye):
    X=              0.0000    Y=              0.0000    Z=             -0.5370  Tot=              0.5370
 Quadrupole moment (field-independent basis, Debye-Ang):
   XX=            -71.6574   YY=            -64.2159   ZZ=            -72.4562
   XY=              0.0000   XZ=              0.0000   YZ=              0.0000

 1\1\GINC-HOLY2A14108\SP\RM062X\May-CC-pVQZ\C12H12\ROOT\19-Mar-2017\0\\
 #p m062x may-cc-pVQZ\\benzene dimer 2.40425\\0,1\C,0,1.3915,0.,2.40425
 \H,0,2.4715,0.,2.40425\C,0,0.69575,1.2050743494,2.40425\H,0,1.23575,2.
 1403817855,2.40425\C,0,0.69575,-1.2050743494,2.40425\H,0,1.23575,-2.14
 03817855,2.40425\C,0,-0.69575,1.2050743494,2.40425\H,0,-1.23575,2.1403
 817855,2.40425\C,0,-0.69575,-1.2050743494,2.40425\H,0,-1.23575,-2.1403
 817855,2.40425\C,0,-1.3915,0.,2.40425\H,0,-2.4715,0.,2.40425\C,0,0.,0.
 ,-1.10425\C,0,0.,-1.2050743494,-1.8\H,0,0.,-2.1403817855,-1.26\H,0,0.,

 Normal termination of Gaussian 09 at Sun Mar 19 03:53:55 2017.
