 Gaussian 09, Revision D.01,
 Gaussian 09:  EM64L-G09RevD.01 24-Apr-2013

 ----------------------------------------------
 #p b3lyp empiricaldispersion=gd3bj jun-cc-pVTZ
 ----------------------------------------------

 ---------------------
 benzene dimer 2.20425
 ---------------------
 Symbolic Z-matrix:
 Charge =  0 Multiplicity = 1

                         Standard orientation:
 ---------------------------------------------------------------------
 Center     Atomic      Atomic             Coordinates (Angstroms)
 Number     Number       Type             X           Y           Z
 ---------------------------------------------------------------------
      1          6           0       -1.391500    0.000000   -2.350000
      2          1           0       -2.471500    0.000000   -2.350000
      3          6           0       -0.695750    1.205074   -2.350000
      4          1           0       -1.235750    2.140382   -2.350000
      5          6           0       -0.695750   -1.205074   -2.350000
      6          1           0       -1.235750   -2.140382   -2.350000
      7          6           0        0.695750    1.205074   -2.350000
      8          1           0        1.235750    2.140382   -2.350000
      9          6           0        0.695750   -1.205074   -2.350000
     10          1           0        1.235750   -2.140382   -2.350000
     11          6           0        1.391500    0.000000   -2.350000
     12          1           0        2.471500    0.000000   -2.350000
     13          6           0        0.000000    0.000000    0.958500
     14          6           0        0.000000   -1.205074    1.654250
     15          1           0        0.000000   -2.140382    1.114250
     16          1           0        0.000000    0.000000   -0.121500
     17          6           0        0.000000   -1.205074    3.045750
     18          1           0        0.000000   -2.140382    3.585750
     19          6           0        0.000000    0.000000    3.741500
     20          1           0        0.000000    0.000000    4.821500
     21          6           0        0.000000    1.205074    3.045750
     22          1           0        0.000000    2.140382    3.585750
     23          6           0        0.000000    1.205074    1.654250
     24          1           0        0.000000    2.140382    1.114250
 ---------------------------------------------------------------------

 SCF Done:  E(RB3LYP) =  -464.710716642     A.U. after   10 cycles

 The electronic state is 1-A1.
 Alpha  occ. eigenvalues --  -10.18560 -10.18537 -10.18528 -10.18477 -10.18467
 Alpha  occ. eigenvalues --  -10.18445 -10.17330 -10.17301 -10.17246 -10.17129
 Alpha  occ. eigenvalues --  -10.17125 -10.16713  -0.86596  -0.85129  -0.75654
 Alpha  occ. eigenvalues --   -0.75621  -0.74321  -0.74215  -0.61267  -0.61262
 Alpha  occ. eigenvalues --   -0.59973  -0.59936  -0.53489  -0.52195  -0.47026
 Alpha  occ. eigenvalues --   -0.45861  -0.45743  -0.44398  -0.43218  -0.43180
 Alpha  occ. eigenvalues --   -0.42271  -0.41962  -0.37687  -0.36622  -0.35445
 Alpha  occ. eigenvalues --   -0.35420  -0.34183  -0.33579  -0.26847  -0.26683
 Alpha  occ. eigenvalues --   -0.25295  -0.24947
 Alpha virt. eigenvalues --   -0.02499  -0.02296  -0.00866  -0.00781  -0.00780
 Alpha virt. eigenvalues --    0.00543   0.00639   0.01203   0.02351   0.02617
 Alpha virt. eigenvalues --    0.03184   0.03308   0.04517   0.04565   0.04976

 Mulliken charges:
               1
     1  C   -0.133905
     2  H    0.121535
     3  C   -0.130268
     4  H    0.126200
     5  C   -0.130268
     6  H    0.126200
     7  C   -0.130268
     8  H    0.126200
     9  C   -0.130268
    10  H    0.126200
    11  C   -0.133905
    12  H    0.121535
    13  C    0.220368
    14  C   -0.214173
    15  H    0.114190
    16  H    0.066980
    17  C   -0.131457
    18  H    0.118797
    19  C   -0.118519
    20  H    0.097465
    21  C   -0.131457
    22  H    0.118797
    23  C   -0.214173
    24  H    0.114190
 Sum of Mulliken charges =   0.00000

 Dipole moment (field-independent basis, Debye):
    X=              0.0000    Y=              0.0000    Z=             -0.6151  Tot=              0.6151
 Quadrupole moment (field-independent basis, Debye-Ang):
   XX=            -71.8472   YY=            -65.0257   ZZ=            -73.2358
   XY=              0.0000   XZ=              0.0000   YZ=              0.0000

 Normal termination of Gaussian 09 at Sun Mar 19 00:56:01 2017.
