 Gaussian 09, Revision D.01,
 Gaussian 09:  EM64L-G09RevD.01 24-Apr-2013

 ----------------------------------------------
 #p b3lyp empiricaldispersion=gd3bj jul-cc-pVDZ
 ----------------------------------------------

 ---------------------
 benzene dimer 2.10425
 ---------------------
 Symbolic Z-matrix:
 Charge =  0 Multiplicity = 1

                         Standard orientation:
 ---------------------------------------------------------------------
 Center     Atomic      Atomic             Coordinates (Angstroms)
 Number     Number       Type             X           Y           Z
 ---------------------------------------------------------------------
      1          6           0       -1.391500    0.000000   -2.300000
      2          1           0       -2.471500    0.000000   -2.300000
      3          6           0       -0.695750    1.205074   -2.300000
      4          1           0       -1.235750    2.140382   -2.300000
      5          6           0       -0.695750   -1.205074   -2.300000
      6          1           0       -1.235750   -2.140382   -2.300000
      7          6           0        0.695750    1.205074   -2.300000
      8          1           0        1.235750    2.140382   -2.300000
      9          6           0        0.695750   -1.205074   -2.300000
     10          1           0        1.235750   -2.140382   -2.300000
     11          6           0        1.391500    0.000000   -2.300000
     12          1           0        2.471500    0.000000   -2.300000
     13          6           0        0.000000    0.000000    0.908500
     14          6           0        0.000000   -1.205074    1.604250
     15          1           0        0.000000   -2.140382    1.064250
     16          1           0        0.000000    0.000000   -0.171500
     17          6           0        0.000000   -1.205074    2.995750
     18          1           0        0.000000   -2.140382    3.535750
     19          6           0        0.000000    0.000000    3.691500
     20          1           0        0.000000    0.000000    4.771500
     21          6           0        0.000000    1.205074    2.995750
     22          1           0        0.000000    2.140382    3.535750
     23          6           0        0.000000    1.205074    1.604250
     24          1           0        0.000000    2.140382    1.064250
 ---------------------------------------------------------------------

 SCF Done:  E(RB3LYP) =  -464.583506855     A.U. after   11 cycles

 The electronic state is 1-A1.
 Alpha  occ. eigenvalues --  -10.19806 -10.19789 -10.19780 -10.19734 -10.19724
 Alpha  occ. eigenvalues --  -10.19702 -10.18486 -10.18464 -10.18408 -10.18264
 Alpha  occ. eigenvalues --  -10.18263 -10.17751  -0.86874  -0.85288  -0.75886
 Alpha  occ. eigenvalues --   -0.75852  -0.74468  -0.74357  -0.61398  -0.61394
 Alpha  occ. eigenvalues --   -0.60027  -0.60000  -0.53512  -0.52144  -0.47068
 Alpha  occ. eigenvalues --   -0.45865  -0.45754  -0.44331  -0.43224  -0.43184
 Alpha  occ. eigenvalues --   -0.42330  -0.41890  -0.37559  -0.36531  -0.35384
 Alpha  occ. eigenvalues --   -0.35359  -0.34046  -0.33315  -0.26900  -0.26684
 Alpha  occ. eigenvalues --   -0.25210  -0.24799
 Alpha virt. eigenvalues --   -0.02495  -0.02260  -0.00735  -0.00629  -0.00335
 Alpha virt. eigenvalues --    0.01026   0.01034   0.01655   0.02911   0.03122
 Alpha virt. eigenvalues --    0.03767   0.03826   0.05241   0.05648   0.05719

 Mulliken charges:
               1
     1  C    0.256752
     2  H   -0.214740
     3  C    0.207603
     4  H   -0.216108
     5  C    0.207603
     6  H   -0.216108
     7  C    0.207603
     8  H   -0.216108
     9  C    0.207603
    10  H   -0.216108
    11  C    0.256752
    12  H   -0.214740
    13  C    0.842234
    14  C    0.194834
    15  H   -0.191781
    16  H   -0.577354
    17  C    0.052820
    18  H   -0.200344
    19  C    0.178046
    20  H   -0.203984
    21  C    0.052820
    22  H   -0.200344
    23  C    0.194834
    24  H   -0.191781
 Sum of Mulliken charges =   0.00000

 Dipole moment (field-independent basis, Debye):
    X=              0.0000    Y=              0.0000    Z=             -0.6591  Tot=              0.6591
 Quadrupole moment (field-independent basis, Debye-Ang):
   XX=            -71.9040   YY=            -65.3257   ZZ=            -73.4186
   XY=              0.0000   XZ=              0.0000   YZ=              0.0000

 Normal termination of Gaussian 09 at Sun Mar 19 00:42:48 2017.
