 Gaussian 09, Revision D.01,
 Gaussian 09:  EM64L-G09RevD.01 24-Apr-2013

 ------------------------------------------
 #p b3lyp empiricaldispersion=gd3bj cc-pVTZ
 ------------------------------------------

 ---------------------
 benzene dimer 2.40425
 ---------------------
 Symbolic Z-matrix:
 Charge =  0 Multiplicity = 1

                         Standard orientation:
 ---------------------------------------------------------------------
 Center     Atomic      Atomic             Coordinates (Angstroms)
 Number     Number       Type             X           Y           Z
 ---------------------------------------------------------------------
      1          6           0       -1.391500    0.000000   -2.450000
      2          1           0       -2.471500    0.000000   -2.450000
      3          6           0       -0.695750    1.205074   -2.450000
      4          1           0       -1.235750    2.140382   -2.450000
      5          6           0       -0.695750   -1.205074   -2.450000
      6          1           0       -1.235750   -2.140382   -2.450000
      7          6           0        0.695750    1.205074   -2.450000
      8          1           0        1.235750    2.140382   -2.450000
      9          6           0        0.695750   -1.205074   -2.450000
     10          1           0        1.235750   -2.140382   -2.450000
     11          6           0        1.391500    0.000000   -2.450000
     12          1           0        2.471500    0.000000   -2.450000
     13          6           0        0.000000    0.000000    1.058500
     14          6           0        0.000000   -1.205074    1.754250
     15          1           0        0.000000   -2.140382    1.214250
     16          1           0        0.000000    0.000000   -0.021500
     17          6           0        0.000000   -1.205074    3.145750
     18          1           0        0.000000   -2.140382    3.685750
     19          6           0        0.000000    0.000000    3.841500
     20          1           0        0.000000    0.000000    4.921500
     21          6           0        0.000000    1.205074    3.145750
     22          1           0        0.000000    2.140382    3.685750
     23          6           0        0.000000    1.205074    1.754250
     24          1           0        0.000000    2.140382    1.214250
 ---------------------------------------------------------------------

 SCF Done:  E(RB3LYP) =  -464.709448845     A.U. after   13 cycles

 The electronic state is 1-A1.
 Alpha  occ. eigenvalues --  -10.18328 -10.18307 -10.18296 -10.18248 -10.18234
 Alpha  occ. eigenvalues --  -10.18214 -10.17182 -10.17148 -10.17101 -10.17003
 Alpha  occ. eigenvalues --  -10.16998 -10.16678  -0.86308  -0.85001  -0.75414
 Alpha  occ. eigenvalues --   -0.75386  -0.74201  -0.74105  -0.61057  -0.61052
 Alpha  occ. eigenvalues --   -0.59872  -0.59826  -0.53265  -0.52077  -0.46852
 Alpha  occ. eigenvalues --   -0.45742  -0.45517  -0.44284  -0.43003  -0.42971
 Alpha  occ. eigenvalues --   -0.41980  -0.41857  -0.37600  -0.36494  -0.35243
 Alpha  occ. eigenvalues --   -0.35222  -0.34090  -0.33673  -0.26501  -0.26414
 Alpha  occ. eigenvalues --   -0.25154  -0.24910
 Alpha virt. eigenvalues --   -0.01855  -0.01772  -0.00465  -0.00453   0.03134
 Alpha virt. eigenvalues --    0.05165   0.05681   0.06893   0.08236   0.08519
 Alpha virt. eigenvalues --    0.09947   0.10304   0.11585   0.12051   0.12554

 Mulliken charges:
               1
     1  C   -0.096828
     2  H    0.106752
     3  C   -0.111562
     4  H    0.108216
     5  C   -0.111562
     6  H    0.108216
     7  C   -0.111562
     8  H    0.108216
     9  C   -0.111562
    10  H    0.108216
    11  C   -0.096828
    12  H    0.106752
    13  C   -0.047249
    14  C   -0.130733
    15  H    0.101087
    16  H    0.109367
    17  C   -0.101796
    18  H    0.102598
    19  C   -0.113723
    20  H    0.102826
    21  C   -0.101796
    22  H    0.102598
    23  C   -0.130733
    24  H    0.101087
 Sum of Mulliken charges =   0.00000

 Dipole moment (field-independent basis, Debye):
    X=              0.0000    Y=              0.0000    Z=             -0.5307  Tot=              0.5307
 Quadrupole moment (field-independent basis, Debye-Ang):
   XX=            -71.3582   YY=            -64.4744   ZZ=            -72.4283
   XY=              0.0000   XZ=              0.0000   YZ=              0.0000

 Normal termination of Gaussian 09 at Sun Mar 19 00:31:26 2017.
