 Gaussian 09, Revision D.01,
 Gaussian 09:  EM64L-G09RevD.01 24-Apr-2013

 ------------------------------------------
 #p b3lyp empiricaldispersion=gd3bj cc-pVDZ
 ------------------------------------------

 ---------------------
 benzene dimer 2.80425
 ---------------------
 Symbolic Z-matrix:
 Charge =  0 Multiplicity = 1

                         Standard orientation:
 ---------------------------------------------------------------------
 Center     Atomic      Atomic             Coordinates (Angstroms)
 Number     Number       Type             X           Y           Z
 ---------------------------------------------------------------------
      1          6           0       -1.391500    0.000000   -2.650000
      2          1           0       -2.471500    0.000000   -2.650000
      3          6           0       -0.695750    1.205074   -2.650000
      4          1           0       -1.235750    2.140382   -2.650000
      5          6           0       -0.695750   -1.205074   -2.650000
      6          1           0       -1.235750   -2.140382   -2.650000
      7          6           0        0.695750    1.205074   -2.650000
      8          1           0        1.235750    2.140382   -2.650000
      9          6           0        0.695750   -1.205074   -2.650000
     10          1           0        1.235750   -2.140382   -2.650000
     11          6           0        1.391500    0.000000   -2.650000
     12          1           0        2.471500    0.000000   -2.650000
     13          6           0        0.000000    0.000000    1.258500
     14          6           0        0.000000   -1.205074    1.954250
     15          1           0        0.000000   -2.140382    1.414250
     16          1           0        0.000000    0.000000    0.178500
     17          6           0        0.000000   -1.205074    3.345750
     18          1           0        0.000000   -2.140382    3.885750
     19          6           0        0.000000    0.000000    4.041500
     20          1           0        0.000000    0.000000    5.121500
     21          6           0        0.000000    1.205074    3.345750
     22          1           0        0.000000    2.140382    3.885750
     23          6           0        0.000000    1.205074    1.954250
     24          1           0        0.000000    2.140382    1.414250
 ---------------------------------------------------------------------

 SCF Done:  E(RB3LYP) =  -464.566593858     A.U. after   13 cycles

 The electronic state is 1-A1.
 Alpha  occ. eigenvalues --  -10.19215 -10.19195 -10.19184 -10.19144 -10.19131
 Alpha  occ. eigenvalues --  -10.19114 -10.18316 -10.18285 -10.18249 -10.18176
 Alpha  occ. eigenvalues --  -10.18171 -10.17944  -0.85959  -0.84979  -0.75112
 Alpha  occ. eigenvalues --   -0.75093  -0.74187  -0.74111  -0.60709  -0.60705
 Alpha  occ. eigenvalues --   -0.59795  -0.59747  -0.52743  -0.51817  -0.46503
 Alpha  occ. eigenvalues --   -0.45607  -0.44992  -0.44041  -0.42541  -0.42518
 Alpha  occ. eigenvalues --   -0.41663  -0.41610  -0.37172  -0.36225  -0.34746
 Alpha  occ. eigenvalues --   -0.34732  -0.33858  -0.33643  -0.25821  -0.25811
 Alpha  occ. eigenvalues --   -0.24859  -0.24736
 Alpha virt. eigenvalues --   -0.00891  -0.00881   0.00065   0.00107   0.05297
 Alpha virt. eigenvalues --    0.06970   0.08933   0.09786   0.10867   0.11062
 Alpha virt. eigenvalues --    0.13277   0.13311   0.14227   0.14485   0.15036

 Mulliken charges:
               1
     1  C    0.036335
     2  H   -0.033571
     3  C    0.033937
     4  H   -0.034279
     5  C    0.033937
     6  H   -0.034279
     7  C    0.033937
     8  H   -0.034279
     9  C    0.033937
    10  H   -0.034279
    11  C    0.036335
    12  H   -0.033571
    13  C    0.049362
    14  C    0.027848
    15  H   -0.042373
    16  H   -0.014921
    17  C    0.037064
    18  H   -0.039264
    19  C    0.034039
    20  H   -0.039188
    21  C    0.037064
    22  H   -0.039264
    23  C    0.027848
    24  H   -0.042373
 Sum of Mulliken charges =   0.00000

 Dipole moment (field-independent basis, Debye):
    X=              0.0000    Y=              0.0000    Z=             -0.4154  Tot=              0.4154
 Quadrupole moment (field-independent basis, Debye-Ang):
   XX=            -70.7198   YY=            -64.2272   ZZ=            -71.4215
   XY=              0.0000   XZ=              0.0000   YZ=              0.0000

 Normal termination of Gaussian 09 at Sun Mar 19 00:47:10 2017.
