 Gaussian 09, Revision D.01,
 Gaussian 09:  EM64L-G09RevD.01 24-Apr-2013

 ----------------------------------------------
 #p b3lyp empiricaldispersion=gd3bj jun-cc-pVTZ
 ----------------------------------------------

 ---------------------
 benzene dimer 3.90425
 ---------------------
 Symbolic Z-matrix:
 Charge =  0 Multiplicity = 1

                         Standard orientation:
 ---------------------------------------------------------------------
 Center     Atomic      Atomic             Coordinates (Angstroms)
 Number     Number       Type             X           Y           Z
 ---------------------------------------------------------------------
      1          6           0       -1.391500    0.000000   -3.200000
      2          1           0       -2.471500    0.000000   -3.200000
      3          6           0       -0.695750    1.205074   -3.200000
      4          1           0       -1.235750    2.140382   -3.200000
      5          6           0       -0.695750   -1.205074   -3.200000
      6          1           0       -1.235750   -2.140382   -3.200000
      7          6           0        0.695750    1.205074   -3.200000
      8          1           0        1.235750    2.140382   -3.200000
      9          6           0        0.695750   -1.205074   -3.200000
     10          1           0        1.235750   -2.140382   -3.200000
     11          6           0        1.391500    0.000000   -3.200000
     12          1           0        2.471500    0.000000   -3.200000
     13          6           0        0.000000    0.000000    1.808500
     14          6           0        0.000000   -1.205074    2.504250
     15          1           0        0.000000   -2.140382    1.964250
     16          1           0        0.000000    0.000000    0.728500
     17          6           0        0.000000   -1.205074    3.895750
     18          1           0        0.000000   -2.140382    4.435750
     19          6           0        0.000000    0.000000    4.591500
     20          1           0        0.000000    0.000000    5.671500
     21          6           0        0.000000    1.205074    3.895750
     22          1           0        0.000000    2.140382    4.435750
     23          6           0        0.000000    1.205074    2.504250
     24          1           0        0.000000    2.140382    1.964250
 ---------------------------------------------------------------------

 SCF Done:  E(RB3LYP) =  -464.708350399     A.U. after    9 cycles

 The electronic state is 1-A1.
 Alpha  occ. eigenvalues --  -10.18258 -10.18233 -10.18229 -10.18173 -10.18169
 Alpha  occ. eigenvalues --  -10.18144 -10.17797 -10.17765 -10.17732 -10.17696
 Alpha  occ. eigenvalues --  -10.17690 -10.17603  -0.86161  -0.85670  -0.75292
 Alpha  occ. eigenvalues --   -0.75284  -0.74816  -0.74784  -0.60956  -0.60954
 Alpha  occ. eigenvalues --   -0.60481  -0.60461  -0.53148  -0.52664  -0.46756
 Alpha  occ. eigenvalues --   -0.46276  -0.45423  -0.44936  -0.42887  -0.42876
 Alpha  occ. eigenvalues --   -0.42426  -0.42369  -0.37614  -0.37115  -0.35141
 Alpha  occ. eigenvalues --   -0.35133  -0.34675  -0.34623  -0.26236  -0.26228
 Alpha  occ. eigenvalues --   -0.25756  -0.25718
 Alpha virt. eigenvalues --   -0.01955  -0.01933  -0.01447  -0.01443  -0.00775
 Alpha virt. eigenvalues --    0.00339   0.00752   0.01230   0.01972   0.02148
 Alpha virt. eigenvalues --    0.03353   0.03392   0.04145   0.04195   0.04384

 Mulliken charges:
               1
     1  C   -0.133532
     2  H    0.118943
     3  C   -0.114649
     4  H    0.119380
     5  C   -0.114649
     6  H    0.119380
     7  C   -0.114649
     8  H    0.119380
     9  C   -0.114649
    10  H    0.119380
    11  C   -0.133532
    12  H    0.118943
    13  C   -0.118858
    14  C   -0.130240
    15  H    0.110151
    16  H    0.156446
    17  C   -0.112353
    18  H    0.116583
    19  C   -0.108034
    20  H    0.112418
    21  C   -0.112353
    22  H    0.116583
    23  C   -0.130240
    24  H    0.110151
 Sum of Mulliken charges =   0.00000

 Dipole moment (field-independent basis, Debye):
    X=              0.0000    Y=              0.0000    Z=             -0.1897  Tot=              0.1897
 Quadrupole moment (field-independent basis, Debye-Ang):
   XX=            -72.2100   YY=            -64.8938   ZZ=            -72.7169
   XY=              0.0000   XZ=              0.0000   YZ=              0.0000

 Normal termination of Gaussian 09 at Sun Mar 19 01:09:00 2017.
