 Gaussian 09, Revision D.01,
 Gaussian 09:  EM64L-G09RevD.01 24-Apr-2013

 ------------------------------------------
 #p b3lyp empiricaldispersion=gd3bj cc-pVDZ
 ------------------------------------------

 ---------------------
 benzene dimer 2.00425
 ---------------------
 Symbolic Z-matrix:
 Charge =  0 Multiplicity = 1

                         Standard orientation:
 ---------------------------------------------------------------------
 Center     Atomic      Atomic             Coordinates (Angstroms)
 Number     Number       Type             X           Y           Z
 ---------------------------------------------------------------------
      1          6           0       -1.391500    0.000000   -2.250000
      2          1           0       -2.471500    0.000000   -2.250000
      3          6           0       -0.695750    1.205074   -2.250000
      4          1           0       -1.235750    2.140382   -2.250000
      5          6           0       -0.695750   -1.205074   -2.250000
      6          1           0       -1.235750   -2.140382   -2.250000
      7          6           0        0.695750    1.205074   -2.250000
      8          1           0        1.235750    2.140382   -2.250000
      9          6           0        0.695750   -1.205074   -2.250000
     10          1           0        1.235750   -2.140382   -2.250000
     11          6           0        1.391500    0.000000   -2.250000
     12          1           0        2.471500    0.000000   -2.250000
     13          6           0        0.000000    0.000000    0.858500
     14          6           0        0.000000   -1.205074    1.554250
     15          1           0        0.000000   -2.140382    1.014250
     16          1           0        0.000000    0.000000   -0.221500
     17          6           0        0.000000   -1.205074    2.945750
     18          1           0        0.000000   -2.140382    3.485750
     19          6           0        0.000000    0.000000    3.641500
     20          1           0        0.000000    0.000000    4.721500
     21          6           0        0.000000    1.205074    2.945750
     22          1           0        0.000000    2.140382    3.485750
     23          6           0        0.000000    1.205074    1.554250
     24          1           0        0.000000    2.140382    1.014250
 ---------------------------------------------------------------------

 SCF Done:  E(RB3LYP) =  -464.564260863     A.U. after   13 cycles

 The electronic state is 1-A1.
 Alpha  occ. eigenvalues --  -10.19516 -10.19494 -10.19482 -10.19442 -10.19428
 Alpha  occ. eigenvalues --  -10.19411 -10.17941 -10.17918 -10.17867 -10.17697
 Alpha  occ. eigenvalues --  -10.17694 -10.17105  -0.86454  -0.84532  -0.75478
 Alpha  occ. eigenvalues --   -0.75440  -0.73785  -0.73655  -0.61006  -0.61003
 Alpha  occ. eigenvalues --   -0.59389  -0.59359  -0.53111  -0.51489  -0.46749
 Alpha  occ. eigenvalues --   -0.45367  -0.45305  -0.43607  -0.42867  -0.42827
 Alpha  occ. eigenvalues --   -0.41865  -0.41293  -0.36956  -0.35838  -0.35034
 Alpha  occ. eigenvalues --   -0.35011  -0.33457  -0.32539  -0.26487  -0.26256
 Alpha  occ. eigenvalues --   -0.24491  -0.24040
 Alpha virt. eigenvalues --   -0.01409  -0.01284   0.00572   0.00576   0.05069
 Alpha virt. eigenvalues --    0.07531   0.08380   0.09652   0.11355   0.11673
 Alpha virt. eigenvalues --    0.13129   0.13701   0.14646   0.15157   0.15208

 Mulliken charges:
               1
     1  C    0.037661
     2  H   -0.032108
     3  C    0.033464
     4  H   -0.032817
     5  C    0.033464
     6  H   -0.032817
     7  C    0.033464
     8  H   -0.032817
     9  C    0.033464
    10  H   -0.032817
    11  C    0.037661
    12  H   -0.032108
    13  C    0.104659
    14  C    0.013494
    15  H   -0.054556
    16  H   -0.022679
    17  C    0.040343
    18  H   -0.042064
    19  C    0.031451
    20  H   -0.041560
    21  C    0.040343
    22  H   -0.042064
    23  C    0.013494
    24  H   -0.054556
 Sum of Mulliken charges =   0.00000

 Dipole moment (field-independent basis, Debye):
    X=              0.0000    Y=              0.0000    Z=             -0.7674  Tot=              0.7674
 Quadrupole moment (field-independent basis, Debye-Ang):
   XX=            -70.4742   YY=            -64.4513   ZZ=            -71.8500
   XY=              0.0000   XZ=              0.0000   YZ=              0.0000

 Normal termination of Gaussian 09 at Sun Mar 19 00:42:10 2017.
