 Gaussian 09, Revision D.01,
 Gaussian 09:  EM64L-G09RevD.01 24-Apr-2013

 -----------------------------------------
 #p b3lyp empiricaldispersion=gd3bj 6-31g*
 -----------------------------------------

 ---------------------
 benzene dimer 3.90425
 ---------------------
 Symbolic Z-matrix:
 Charge =  0 Multiplicity = 1

                         Standard orientation:
 ---------------------------------------------------------------------
 Center     Atomic      Atomic             Coordinates (Angstroms)
 Number     Number       Type             X           Y           Z
 ---------------------------------------------------------------------
      1          6           0       -1.391500    0.000000   -3.200000
      2          1           0       -2.471500    0.000000   -3.200000
      3          6           0       -0.695750    1.205074   -3.200000
      4          1           0       -1.235750    2.140382   -3.200000
      5          6           0       -0.695750   -1.205074   -3.200000
      6          1           0       -1.235750   -2.140382   -3.200000
      7          6           0        0.695750    1.205074   -3.200000
      8          1           0        1.235750    2.140382   -3.200000
      9          6           0        0.695750   -1.205074   -3.200000
     10          1           0        1.235750   -2.140382   -3.200000
     11          6           0        1.391500    0.000000   -3.200000
     12          1           0        2.471500    0.000000   -3.200000
     13          6           0        0.000000    0.000000    1.808500
     14          6           0        0.000000   -1.205074    2.504250
     15          1           0        0.000000   -2.140382    1.964250
     16          1           0        0.000000    0.000000    0.728500
     17          6           0        0.000000   -1.205074    3.895750
     18          1           0        0.000000   -2.140382    4.435750
     19          6           0        0.000000    0.000000    4.591500
     20          1           0        0.000000    0.000000    5.671500
     21          6           0        0.000000    1.205074    3.895750
     22          1           0        0.000000    2.140382    4.435750
     23          6           0        0.000000    1.205074    2.504250
     24          1           0        0.000000    2.140382    1.964250
 ---------------------------------------------------------------------

 SCF Done:  E(RB3LYP) =  -464.536113325     A.U. after   12 cycles

 The electronic state is 1-A1.
 Alpha  occ. eigenvalues --  -10.18725 -10.18699 -10.18695 -10.18642 -10.18638
 Alpha  occ. eigenvalues --  -10.18612 -10.18255 -10.18222 -10.18190 -10.18153
 Alpha  occ. eigenvalues --  -10.18148 -10.18056  -0.85059  -0.84560  -0.74321
 Alpha  occ. eigenvalues --   -0.74314  -0.73840  -0.73806  -0.60054  -0.60052
 Alpha  occ. eigenvalues --   -0.59574  -0.59551  -0.52264  -0.51774  -0.46163
 Alpha  occ. eigenvalues --   -0.45679  -0.44102  -0.43607  -0.42009  -0.41999
 Alpha  occ. eigenvalues --   -0.41545  -0.41482  -0.36293  -0.35781  -0.34222
 Alpha  occ. eigenvalues --   -0.34215  -0.33753  -0.33696  -0.24868  -0.24859
 Alpha  occ. eigenvalues --   -0.24385  -0.24352
 Alpha virt. eigenvalues --    0.00299   0.00305   0.00778   0.00806   0.09141
 Alpha virt. eigenvalues --    0.09610   0.14506   0.14535   0.14905   0.15030
 Alpha virt. eigenvalues --    0.16485   0.16973   0.18275   0.18290   0.18685

 Mulliken charges:
               1
     1  C   -0.128108
     2  H    0.129297
     3  C   -0.128859
     4  H    0.128664
     5  C   -0.128859
     6  H    0.128664
     7  C   -0.128859
     8  H    0.128664
     9  C   -0.128859
    10  H    0.128664
    11  C   -0.128108
    12  H    0.129297
    13  C   -0.134530
    14  C   -0.128380
    15  H    0.127019
    16  H    0.141527
    17  C   -0.127819
    18  H    0.125932
    19  C   -0.128174
    20  H    0.126078
    21  C   -0.127819
    22  H    0.125932
    23  C   -0.128380
    24  H    0.127019
 Sum of Mulliken charges =   0.00000

 Dipole moment (field-independent basis, Debye):
    X=              0.0000    Y=              0.0000    Z=             -0.1738  Tot=              0.1738
 Quadrupole moment (field-independent basis, Debye-Ang):
   XX=            -69.8238   YY=            -62.8734   ZZ=            -70.2924
   XY=              0.0000   XZ=              0.0000   YZ=              0.0000

 Normal termination of Gaussian 09 at Sun Mar 19 00:53:03 2017.
