 Gaussian 09, Revision D.01,
 Gaussian 09:  EM64L-G09RevD.01 24-Apr-2013

 ----------------------------------------------
 #p b3lyp empiricaldispersion=gd3bj jun-cc-pVTZ
 ----------------------------------------------

 ---------------------
 benzene dimer 4.90425
 ---------------------
 Symbolic Z-matrix:
 Charge =  0 Multiplicity = 1

                         Standard orientation:
 ---------------------------------------------------------------------
 Center     Atomic      Atomic             Coordinates (Angstroms)
 Number     Number       Type             X           Y           Z
 ---------------------------------------------------------------------
      1          6           0       -1.391500    0.000000   -3.700000
      2          1           0       -2.471500    0.000000   -3.700000
      3          6           0       -0.695750    1.205074   -3.700000
      4          1           0       -1.235750    2.140382   -3.700000
      5          6           0       -0.695750   -1.205074   -3.700000
      6          1           0       -1.235750   -2.140382   -3.700000
      7          6           0        0.695750    1.205074   -3.700000
      8          1           0        1.235750    2.140382   -3.700000
      9          6           0        0.695750   -1.205074   -3.700000
     10          1           0        1.235750   -2.140382   -3.700000
     11          6           0        1.391500    0.000000   -3.700000
     12          1           0        2.471500    0.000000   -3.700000
     13          6           0        0.000000    0.000000    2.308500
     14          6           0        0.000000   -1.205074    3.004250
     15          1           0        0.000000   -2.140382    2.464250
     16          1           0        0.000000    0.000000    1.228500
     17          6           0        0.000000   -1.205074    4.395750
     18          1           0        0.000000   -2.140382    4.935750
     19          6           0        0.000000    0.000000    5.091500
     20          1           0        0.000000    0.000000    6.171500
     21          6           0        0.000000    1.205074    4.395750
     22          1           0        0.000000    2.140382    4.935750
     23          6           0        0.000000    1.205074    3.004250
     24          1           0        0.000000    2.140382    2.464250
 ---------------------------------------------------------------------

 SCF Done:  E(RB3LYP) =  -464.707567555     A.U. after    9 cycles

 The electronic state is 1-A1.
 Alpha  occ. eigenvalues --  -10.18192 -10.18167 -10.18164 -10.18107 -10.18105
 Alpha  occ. eigenvalues --  -10.18079 -10.17896 -10.17867 -10.17847 -10.17803
 Alpha  occ. eigenvalues --  -10.17802 -10.17749  -0.86091  -0.85781  -0.75222
 Alpha  occ. eigenvalues --   -0.75219  -0.74920  -0.74904  -0.60892  -0.60891
 Alpha  occ. eigenvalues --   -0.60589  -0.60579  -0.53086  -0.52778  -0.46698
 Alpha  occ. eigenvalues --   -0.46391  -0.45357  -0.45048  -0.42822  -0.42817
 Alpha  occ. eigenvalues --   -0.42527  -0.42496  -0.37535  -0.37222  -0.35078
 Alpha  occ. eigenvalues --   -0.35074  -0.34780  -0.34755  -0.26160  -0.26155
 Alpha  occ. eigenvalues --   -0.25856  -0.25838
 Alpha virt. eigenvalues --   -0.01872  -0.01866  -0.01564  -0.01556  -0.00727
 Alpha virt. eigenvalues --    0.00283   0.00892   0.01260   0.01797   0.01823
 Alpha virt. eigenvalues --    0.03358   0.03420   0.03768   0.03910   0.04373

 Mulliken charges:
               1
     1  C   -0.117991
     2  H    0.117963
     3  C   -0.117501
     4  H    0.117464
     5  C   -0.117501
     6  H    0.117464
     7  C   -0.117501
     8  H    0.117464
     9  C   -0.117501
    10  H    0.117464
    11  C   -0.117991
    12  H    0.117963
    13  C   -0.111724
    14  C   -0.138953
    15  H    0.111972
    16  H    0.140945
    17  C   -0.109923
    18  H    0.117181
    19  C   -0.104121
    20  H    0.114552
    21  C   -0.109923
    22  H    0.117181
    23  C   -0.138953
    24  H    0.111972
 Sum of Mulliken charges =   0.00000

 Dipole moment (field-independent basis, Debye):
    X=              0.0000    Y=              0.0000    Z=             -0.1074  Tot=              0.1074
 Quadrupole moment (field-independent basis, Debye-Ang):
   XX=            -72.2557   YY=            -64.8637   ZZ=            -72.6163
   XY=              0.0000   XZ=              0.0000   YZ=              0.0000

 Normal termination of Gaussian 09 at Sun Mar 19 01:07:23 2017.
