 Gaussian 09, Revision D.01,
 Gaussian 09:  EM64L-G09RevD.01 24-Apr-2013

 --------------------
 #p m062x may-cc-pVQZ
 --------------------

 ---------------------
 benzene dimer 1.90425
 ---------------------
 Symbolic Z-matrix:
 Charge =  0 Multiplicity = 1

                         Standard orientation:
 ---------------------------------------------------------------------
 Center     Atomic      Atomic             Coordinates (Angstroms)
 Number     Number       Type             X           Y           Z
 ---------------------------------------------------------------------
      1          6           0       -1.391500    0.000000   -2.200000
      2          1           0       -2.471500    0.000000   -2.200000
      3          6           0       -0.695750    1.205074   -2.200000
      4          1           0       -1.235750    2.140382   -2.200000
      5          6           0       -0.695750   -1.205074   -2.200000
      6          1           0       -1.235750   -2.140382   -2.200000
      7          6           0        0.695750    1.205074   -2.200000
      8          1           0        1.235750    2.140382   -2.200000
      9          6           0        0.695750   -1.205074   -2.200000
     10          1           0        1.235750   -2.140382   -2.200000
     11          6           0        1.391500    0.000000   -2.200000
     12          1           0        2.471500    0.000000   -2.200000
     13          6           0        0.000000    0.000000    0.808500
     14          6           0        0.000000   -1.205074    1.504250
     15          1           0        0.000000   -2.140382    0.964250
     16          1           0        0.000000    0.000000   -0.271500
     17          6           0        0.000000   -1.205074    2.895750
     18          1           0        0.000000   -2.140382    3.435750
     19          6           0        0.000000    0.000000    3.591500
     20          1           0        0.000000    0.000000    4.671500
     21          6           0        0.000000    1.205074    2.895750
     22          1           0        0.000000    2.140382    3.435750
     23          6           0        0.000000    1.205074    1.504250
     24          1           0        0.000000    2.140382    0.964250
 ---------------------------------------------------------------------

 SCF Done:  E(RM062X) =  -464.473434678     A.U. after   11 cycles

 The electronic state is 1-A1.
 Alpha  occ. eigenvalues --  -10.54990 -10.54958 -10.54945 -10.54875 -10.54860
 Alpha  occ. eigenvalues --  -10.54827 -10.53416 -10.53380 -10.53293 -10.53150
 Alpha  occ. eigenvalues --  -10.53145 -10.52501  -0.97042  -0.95016  -0.85179
 Alpha  occ. eigenvalues --   -0.85132  -0.83435  -0.83294  -0.69394  -0.69391
 Alpha  occ. eigenvalues --   -0.67735  -0.67734  -0.61048  -0.59371  -0.54123
 Alpha  occ. eigenvalues --   -0.52764  -0.52094  -0.50374  -0.49696  -0.49644
 Alpha  occ. eigenvalues --   -0.49008  -0.48063  -0.43746  -0.43166  -0.41042
 Alpha  occ. eigenvalues --   -0.41013  -0.39411  -0.38421  -0.32287  -0.31913
 Alpha  occ. eigenvalues --   -0.30073  -0.29447
 Alpha virt. eigenvalues --   -0.00357   0.00489   0.00637   0.00873   0.00934
 Alpha virt. eigenvalues --    0.01130   0.02345   0.02425   0.02656   0.02715
 Alpha virt. eigenvalues --    0.02836   0.03322   0.03944   0.04421   0.04565

 Mulliken charges:
               1
     1  C   -0.413156
     2  H    0.495786
     3  C   -0.544633
     4  H    0.502610
     5  C   -0.544633
     6  H    0.502610
     7  C   -0.544633
     8  H    0.502610
     9  C   -0.544633
    10  H    0.502610
    11  C   -0.413156
    12  H    0.495786
    13  C   -0.415614
    14  C   -0.516835
    15  H    0.499159
    16  H    0.327890
    17  C   -0.364243
    18  H    0.454932
    19  C   -0.485788
    20  H    0.430317
    21  C   -0.364243
    22  H    0.454932
    23  C   -0.516835
    24  H    0.499159
 Sum of Mulliken charges =   0.00000

 Dipole moment (field-independent basis, Debye):
    X=              0.0000    Y=              0.0000    Z=             -0.7687  Tot=              0.7687
 Quadrupole moment (field-independent basis, Debye-Ang):
   XX=            -71.4258   YY=            -64.3324   ZZ=            -72.9393
   XY=              0.0000   XZ=              0.0000   YZ=              0.0000

 1\1\GINC-HOLY2A14108\SP\RM062X\May-CC-pVQZ\C12H12\ROOT\19-Mar-2017\0\\
 #p m062x may-cc-pVQZ\\benzene dimer 1.90425\\0,1\C,0,1.3915,0.,1.90425
 \H,0,2.4715,0.,1.90425\C,0,0.69575,1.2050743494,1.90425\H,0,1.23575,2.
 1403817855,1.90425\C,0,0.69575,-1.2050743494,1.90425\H,0,1.23575,-2.14
 03817855,1.90425\C,0,-0.69575,1.2050743494,1.90425\H,0,-1.23575,2.1403
 817855,1.90425\C,0,-0.69575,-1.2050743494,1.90425\H,0,-1.23575,-2.1403
 817855,1.90425\C,0,-1.3915,0.,1.90425\H,0,-2.4715,0.,1.90425\C,0,0.,0.
 ,-1.10425\C,0,0.,-1.2050743494,-1.8\H,0,0.,-2.1403817855,-1.26\H,0,0.,

 Normal termination of Gaussian 09 at Sun Mar 19 03:39:11 2017.
