 Gaussian 09, Revision D.01,
 Gaussian 09:  EM64L-G09RevD.01 24-Apr-2013

 ------------------------------------------
 #p b3lyp empiricaldispersion=gd3bj cc-pVQZ
 ------------------------------------------

 ---------------------
 benzene dimer 2.80425
 ---------------------
 Symbolic Z-matrix:
 Charge =  0 Multiplicity = 1

                         Standard orientation:
 ---------------------------------------------------------------------
 Center     Atomic      Atomic             Coordinates (Angstroms)
 Number     Number       Type             X           Y           Z
 ---------------------------------------------------------------------
      1          6           0       -1.391500    0.000000   -2.650000
      2          1           0       -2.471500    0.000000   -2.650000
      3          6           0       -0.695750    1.205074   -2.650000
      4          1           0       -1.235750    2.140382   -2.650000
      5          6           0       -0.695750   -1.205074   -2.650000
      6          1           0       -1.235750   -2.140382   -2.650000
      7          6           0        0.695750    1.205074   -2.650000
      8          1           0        1.235750    2.140382   -2.650000
      9          6           0        0.695750   -1.205074   -2.650000
     10          1           0        1.235750   -2.140382   -2.650000
     11          6           0        1.391500    0.000000   -2.650000
     12          1           0        2.471500    0.000000   -2.650000
     13          6           0        0.000000    0.000000    1.258500
     14          6           0        0.000000   -1.205074    1.954250
     15          1           0        0.000000   -2.140382    1.414250
     16          1           0        0.000000    0.000000    0.178500
     17          6           0        0.000000   -1.205074    3.345750
     18          1           0        0.000000   -2.140382    3.885750
     19          6           0        0.000000    0.000000    4.041500
     20          1           0        0.000000    0.000000    5.121500
     21          6           0        0.000000    1.205074    3.345750
     22          1           0        0.000000    2.140382    3.885750
     23          6           0        0.000000    1.205074    1.954250
     24          1           0        0.000000    2.140382    1.414250
 ---------------------------------------------------------------------

 SCF Done:  E(RB3LYP) =  -464.742105478     A.U. after   15 cycles

 The electronic state is 1-A1.
 Alpha  occ. eigenvalues --  -10.18033 -10.18009 -10.18000 -10.17948 -10.17938
 Alpha  occ. eigenvalues --  -10.17914 -10.17166 -10.17130 -10.17085 -10.17023
 Alpha  occ. eigenvalues --  -10.17016 -10.16813  -0.86223  -0.85269  -0.75352
 Alpha  occ. eigenvalues --   -0.75333  -0.74446  -0.74376  -0.61024  -0.61020
 Alpha  occ. eigenvalues --   -0.60129  -0.60088  -0.53246  -0.52341  -0.46838
 Alpha  occ. eigenvalues --   -0.45962  -0.45506  -0.44581  -0.42984  -0.42960
 Alpha  occ. eigenvalues --   -0.42120  -0.42081  -0.37711  -0.36786  -0.35236
 Alpha  occ. eigenvalues --   -0.35220  -0.34364  -0.34162  -0.26395  -0.26371
 Alpha  occ. eigenvalues --   -0.25441  -0.25307
 Alpha virt. eigenvalues --   -0.01927  -0.01877  -0.00915  -0.00909   0.01877
 Alpha virt. eigenvalues --    0.03686   0.04142   0.05223   0.06320   0.06548
 Alpha virt. eigenvalues --    0.07944   0.08124   0.09288   0.09355   0.10913

 Mulliken charges:
               1
     1  C   -0.110060
     2  H    0.114043
     3  C   -0.118931
     4  H    0.117533
     5  C   -0.118931
     6  H    0.117533
     7  C   -0.118931
     8  H    0.117533
     9  C   -0.118931
    10  H    0.117533
    11  C   -0.110060
    12  H    0.114043
    13  C   -0.066265
    14  C   -0.138257
    15  H    0.114116
    16  H    0.116235
    17  C   -0.118242
    18  H    0.113732
    19  C   -0.109172
    20  H    0.114132
    21  C   -0.118242
    22  H    0.113732
    23  C   -0.138257
    24  H    0.114116
 Sum of Mulliken charges =   0.00000

 Dipole moment (field-independent basis, Debye):
    X=              0.0000    Y=              0.0000    Z=             -0.3999  Tot=              0.3999
 Quadrupole moment (field-independent basis, Debye-Ang):
   XX=            -71.7132   YY=            -64.6373   ZZ=            -72.4628
   XY=              0.0000   XZ=              0.0000   YZ=              0.0000

 Normal termination of Gaussian 09 at Sun Mar 19 02:00:35 2017.
