 Gaussian 09, Revision D.01,
 Gaussian 09:  EM64L-G09RevD.01 24-Apr-2013

 ------------------------------------------------
 #p pbe1pbe empiricaldispersion=gd3bj may-cc-pVQZ
 ------------------------------------------------

 ---------------------
 benzene dimer 2.80425
 ---------------------
 Symbolic Z-matrix:
 Charge =  0 Multiplicity = 1

                         Standard orientation:
 ---------------------------------------------------------------------
 Center     Atomic      Atomic             Coordinates (Angstroms)
 Number     Number       Type             X           Y           Z
 ---------------------------------------------------------------------
      1          6           0       -1.391500    0.000000   -2.650000
      2          1           0       -2.471500    0.000000   -2.650000
      3          6           0       -0.695750    1.205074   -2.650000
      4          1           0       -1.235750    2.140382   -2.650000
      5          6           0       -0.695750   -1.205074   -2.650000
      6          1           0       -1.235750   -2.140382   -2.650000
      7          6           0        0.695750    1.205074   -2.650000
      8          1           0        1.235750    2.140382   -2.650000
      9          6           0        0.695750   -1.205074   -2.650000
     10          1           0        1.235750   -2.140382   -2.650000
     11          6           0        1.391500    0.000000   -2.650000
     12          1           0        2.471500    0.000000   -2.650000
     13          6           0        0.000000    0.000000    1.258500
     14          6           0        0.000000   -1.205074    1.954250
     15          1           0        0.000000   -2.140382    1.414250
     16          1           0        0.000000    0.000000    0.178500
     17          6           0        0.000000   -1.205074    3.345750
     18          1           0        0.000000   -2.140382    3.885750
     19          6           0        0.000000    0.000000    4.041500
     20          1           0        0.000000    0.000000    5.121500
     21          6           0        0.000000    1.205074    3.345750
     22          1           0        0.000000    2.140382    3.885750
     23          6           0        0.000000    1.205074    1.954250
     24          1           0        0.000000    2.140382    1.414250
 ---------------------------------------------------------------------

 SCF Done:  E(RPBE1PBE) =  -464.136215672     A.U. after    9 cycles

 The electronic state is 1-A1.
 Alpha  occ. eigenvalues --  -10.23245 -10.23219 -10.23210 -10.23154 -10.23144
 Alpha  occ. eigenvalues --  -10.23117 -10.22350 -10.22312 -10.22265 -10.22202
 Alpha  occ. eigenvalues --  -10.22195 -10.21990  -0.88718  -0.87736  -0.77524
 Alpha  occ. eigenvalues --   -0.77504  -0.76591  -0.76518  -0.62742  -0.62738
 Alpha  occ. eigenvalues --   -0.61818  -0.61776  -0.54691  -0.53755  -0.48061
 Alpha  occ. eigenvalues --   -0.47154  -0.46738  -0.45784  -0.44012  -0.43986
 Alpha  occ. eigenvalues --   -0.43121  -0.43086  -0.39032  -0.38090  -0.36029
 Alpha  occ. eigenvalues --   -0.36012  -0.35130  -0.34935  -0.27323  -0.27303
 Alpha  occ. eigenvalues --   -0.26344  -0.26209
 Alpha virt. eigenvalues --   -0.01527  -0.01437  -0.00452  -0.00427  -0.00213
 Alpha virt. eigenvalues --    0.01033   0.01146   0.01692   0.02706   0.02904
 Alpha virt. eigenvalues --    0.03621   0.03716   0.04505   0.04725   0.04946

 Mulliken charges:
               1
     1  C   -0.192210
     2  H    0.175365
     3  C   -0.163985
     4  H    0.174427
     5  C   -0.163985
     6  H    0.174427
     7  C   -0.163985
     8  H    0.174427
     9  C   -0.163985
    10  H    0.174427
    11  C   -0.192210
    12  H    0.175365
    13  C   -0.283704
    14  C   -0.117735
    15  H    0.204558
    16  H    0.131937
    17  C   -0.178901
    18  H    0.182767
    19  C   -0.216322
    20  H    0.178632
    21  C   -0.178901
    22  H    0.182767
    23  C   -0.117735
    24  H    0.204558
 Sum of Mulliken charges =   0.00000

 Dipole moment (field-independent basis, Debye):
    X=              0.0000    Y=              0.0000    Z=             -0.4156  Tot=              0.4156
 Quadrupole moment (field-independent basis, Debye-Ang):
   XX=            -71.3033   YY=            -63.7493   ZZ=            -72.0752
   XY=              0.0000   XZ=              0.0000   YZ=              0.0000

 Normal termination of Gaussian 09 at Sun Mar 19 03:26:18 2017.
