 Gaussian 09, Revision D.01,
 Gaussian 09:  EM64L-G09RevD.01 24-Apr-2013

 ------------------------------------------
 #p b3lyp empiricaldispersion=gd3bj cc-pVDZ
 ------------------------------------------

 ---------------------
 benzene dimer 3.40425
 ---------------------
 Symbolic Z-matrix:
 Charge =  0 Multiplicity = 1

                         Standard orientation:
 ---------------------------------------------------------------------
 Center     Atomic      Atomic             Coordinates (Angstroms)
 Number     Number       Type             X           Y           Z
 ---------------------------------------------------------------------
      1          6           0       -1.391500    0.000000   -2.950000
      2          1           0       -2.471500    0.000000   -2.950000
      3          6           0       -0.695750    1.205074   -2.950000
      4          1           0       -1.235750    2.140382   -2.950000
      5          6           0       -0.695750   -1.205074   -2.950000
      6          1           0       -1.235750   -2.140382   -2.950000
      7          6           0        0.695750    1.205074   -2.950000
      8          1           0        1.235750    2.140382   -2.950000
      9          6           0        0.695750   -1.205074   -2.950000
     10          1           0        1.235750   -2.140382   -2.950000
     11          6           0        1.391500    0.000000   -2.950000
     12          1           0        2.471500    0.000000   -2.950000
     13          6           0        0.000000    0.000000    1.558500
     14          6           0        0.000000   -1.205074    2.254250
     15          1           0        0.000000   -2.140382    1.714250
     16          1           0        0.000000    0.000000    0.478500
     17          6           0        0.000000   -1.205074    3.645750
     18          1           0        0.000000   -2.140382    4.185750
     19          6           0        0.000000    0.000000    4.341500
     20          1           0        0.000000    0.000000    5.421500
     21          6           0        0.000000    1.205074    3.645750
     22          1           0        0.000000    2.140382    4.185750
     23          6           0        0.000000    1.205074    2.254250
     24          1           0        0.000000    2.140382    1.714250
 ---------------------------------------------------------------------

 SCF Done:  E(RB3LYP) =  -464.564491542     A.U. after   13 cycles

 The electronic state is 1-A1.
 Alpha  occ. eigenvalues --  -10.19085 -10.19064 -10.19058 -10.19013 -10.19006
 Alpha  occ. eigenvalues --  -10.18987 -10.18463 -10.18433 -10.18399 -10.18356
 Alpha  occ. eigenvalues --  -10.18350 -10.18215  -0.85815  -0.85148  -0.74983
 Alpha  occ. eigenvalues --   -0.74972  -0.74344  -0.74295  -0.60595  -0.60592
 Alpha  occ. eigenvalues --   -0.59958  -0.59925  -0.52630  -0.51981  -0.46405
 Alpha  occ. eigenvalues --   -0.45766  -0.44872  -0.44214  -0.42426  -0.42411
 Alpha  occ. eigenvalues --   -0.41813  -0.41732  -0.37058  -0.36384  -0.34635
 Alpha  occ. eigenvalues --   -0.34626  -0.34015  -0.33920  -0.25653  -0.25642
 Alpha  occ. eigenvalues --   -0.25007  -0.24950
 Alpha virt. eigenvalues --   -0.00739  -0.00735  -0.00102  -0.00064   0.05426
 Alpha virt. eigenvalues --    0.06683   0.09419   0.09838   0.10543   0.10568
 Alpha virt. eigenvalues --    0.13311   0.13337   0.13925   0.13948   0.15163

 Mulliken charges:
               1
     1  C    0.036490
     2  H   -0.034415
     3  C    0.035034
     4  H   -0.035047
     5  C    0.035034
     6  H   -0.035047
     7  C    0.035034
     8  H   -0.035047
     9  C    0.035034
    10  H   -0.035047
    11  C    0.036490
    12  H   -0.034415
    13  C    0.034888
    14  C    0.033228
    15  H   -0.038402
    16  H   -0.021194
    17  C    0.036227
    18  H   -0.038374
    19  C    0.035141
    20  H   -0.038293
    21  C    0.036227
    22  H   -0.038374
    23  C    0.033228
    24  H   -0.038402
 Sum of Mulliken charges =   0.00000

 Dipole moment (field-independent basis, Debye):
    X=              0.0000    Y=              0.0000    Z=             -0.2752  Tot=              0.2752
 Quadrupole moment (field-independent basis, Debye-Ang):
   XX=            -70.7988   YY=            -64.1528   ZZ=            -71.3110
   XY=              0.0000   XZ=              0.0000   YZ=              0.0000

 Normal termination of Gaussian 09 at Sun Mar 19 00:51:03 2017.
