 Gaussian 09, Revision D.01,
 Gaussian 09:  EM64L-G09RevD.01 24-Apr-2013

 ---------------
 #p b3lyp 6-31g*
 ---------------

 ---------------------
 benzene dimer 5.40425
 ---------------------
 Symbolic Z-matrix:
 Charge =  0 Multiplicity = 1

                         Standard orientation:
 ---------------------------------------------------------------------
 Center     Atomic      Atomic             Coordinates (Angstroms)
 Number     Number       Type             X           Y           Z
 ---------------------------------------------------------------------
      1          6           0       -1.391500    0.000000   -3.950000
      2          1           0       -2.471500    0.000000   -3.950000
      3          6           0       -0.695750    1.205074   -3.950000
      4          1           0       -1.235750    2.140382   -3.950000
      5          6           0       -0.695750   -1.205074   -3.950000
      6          1           0       -1.235750   -2.140382   -3.950000
      7          6           0        0.695750    1.205074   -3.950000
      8          1           0        1.235750    2.140382   -3.950000
      9          6           0        0.695750   -1.205074   -3.950000
     10          1           0        1.235750   -2.140382   -3.950000
     11          6           0        1.391500    0.000000   -3.950000
     12          1           0        2.471500    0.000000   -3.950000
     13          6           0        0.000000    0.000000    2.558500
     14          6           0        0.000000   -1.205074    3.254250
     15          1           0        0.000000   -2.140382    2.714250
     16          1           0        0.000000    0.000000    1.478500
     17          6           0        0.000000   -1.205074    4.645750
     18          1           0        0.000000   -2.140382    5.185750
     19          6           0        0.000000    0.000000    5.341500
     20          1           0        0.000000    0.000000    6.421500
     21          6           0        0.000000    1.205074    4.645750
     22          1           0        0.000000    2.140382    5.185750
     23          6           0        0.000000    1.205074    3.254250
     24          1           0        0.000000    2.140382    2.714250
 ---------------------------------------------------------------------

 SCF Done:  E(RB3LYP) =  -464.496733096     A.U. after   12 cycles

 The electronic state is 1-A1.
 Alpha  occ. eigenvalues --  -10.18622 -10.18596 -10.18594 -10.18538 -10.18537
 Alpha  occ. eigenvalues --  -10.18510 -10.18392 -10.18363 -10.18348 -10.18301
 Alpha  occ. eigenvalues --  -10.18301 -10.18258  -0.84953  -0.84713  -0.74218
 Alpha  occ. eigenvalues --   -0.74215  -0.73983  -0.73971  -0.59958  -0.59957
 Alpha  occ. eigenvalues --   -0.59723  -0.59715  -0.52171  -0.51932  -0.46077
 Alpha  occ. eigenvalues --   -0.45840  -0.44001  -0.43762  -0.41913  -0.41909
 Alpha  occ. eigenvalues --   -0.41683  -0.41660  -0.36169  -0.35928  -0.34128
 Alpha  occ. eigenvalues --   -0.34125  -0.33897  -0.33878  -0.24759  -0.24756
 Alpha  occ. eigenvalues --   -0.24523  -0.24511
 Alpha virt. eigenvalues --    0.00403   0.00405   0.00638   0.00648   0.09215
 Alpha virt. eigenvalues --    0.09454   0.14584   0.14595   0.14790   0.14868
 Alpha virt. eigenvalues --    0.16584   0.16823   0.18347   0.18353   0.18560

 Mulliken charges:
               1
     1  C   -0.127970
     2  H    0.128254
     3  C   -0.128107
     4  H    0.127966
     5  C   -0.128107
     6  H    0.127966
     7  C   -0.128107
     8  H    0.127966
     9  C   -0.128107
    10  H    0.127966
    11  C   -0.127970
    12  H    0.128254
    13  C   -0.129486
    14  C   -0.127957
    15  H    0.127643
    16  H    0.132854
    17  C   -0.127763
    18  H    0.126883
    19  C   -0.127895
    20  H    0.126909
    21  C   -0.127763
    22  H    0.126883
    23  C   -0.127957
    24  H    0.127643
 Sum of Mulliken charges =   0.00000

 Dipole moment (field-independent basis, Debye):
    X=              0.0000    Y=              0.0000    Z=             -0.0623  Tot=              0.0623
 Quadrupole moment (field-independent basis, Debye-Ang):
   XX=            -69.8764   YY=            -62.8418   ZZ=            -70.1880
   XY=              0.0000   XZ=              0.0000   YZ=              0.0000

 Normal termination of Gaussian 09 at Sun Mar 19 00:59:21 2017.
