 Gaussian 09, Revision D.01,
 Gaussian 09:  EM64L-G09RevD.01 24-Apr-2013

 ----------------------------------------------
 #p b3lyp empiricaldispersion=gd3bj may-cc-pVQZ
 ----------------------------------------------

 ---------------------
 benzene dimer 2.40425
 ---------------------
 Symbolic Z-matrix:
 Charge =  0 Multiplicity = 1

                         Standard orientation:
 ---------------------------------------------------------------------
 Center     Atomic      Atomic             Coordinates (Angstroms)
 Number     Number       Type             X           Y           Z
 ---------------------------------------------------------------------
      1          6           0       -1.391500    0.000000   -2.450000
      2          1           0       -2.471500    0.000000   -2.450000
      3          6           0       -0.695750    1.205074   -2.450000
      4          1           0       -1.235750    2.140382   -2.450000
      5          6           0       -0.695750   -1.205074   -2.450000
      6          1           0       -1.235750   -2.140382   -2.450000
      7          6           0        0.695750    1.205074   -2.450000
      8          1           0        1.235750    2.140382   -2.450000
      9          6           0        0.695750   -1.205074   -2.450000
     10          1           0        1.235750   -2.140382   -2.450000
     11          6           0        1.391500    0.000000   -2.450000
     12          1           0        2.471500    0.000000   -2.450000
     13          6           0        0.000000    0.000000    1.058500
     14          6           0        0.000000   -1.205074    1.754250
     15          1           0        0.000000   -2.140382    1.214250
     16          1           0        0.000000    0.000000   -0.021500
     17          6           0        0.000000   -1.205074    3.145750
     18          1           0        0.000000   -2.140382    3.685750
     19          6           0        0.000000    0.000000    3.841500
     20          1           0        0.000000    0.000000    4.921500
     21          6           0        0.000000    1.205074    3.145750
     22          1           0        0.000000    2.140382    3.685750
     23          6           0        0.000000    1.205074    1.754250
     24          1           0        0.000000    2.140382    1.214250
 ---------------------------------------------------------------------

 SCF Done:  E(RB3LYP) =  -464.743447430     A.U. after   10 cycles

 The electronic state is 1-A1.
 Alpha  occ. eigenvalues --  -10.18212 -10.18188 -10.18178 -10.18126 -10.18115
 Alpha  occ. eigenvalues --  -10.18091 -10.17126 -10.17093 -10.17042 -10.16952
 Alpha  occ. eigenvalues --  -10.16947 -10.16631  -0.86446  -0.85204  -0.75543
 Alpha  occ. eigenvalues --   -0.75516  -0.74389  -0.74297  -0.61191  -0.61186
 Alpha  occ. eigenvalues --   -0.60061  -0.60018  -0.53421  -0.52288  -0.46980
 Alpha  occ. eigenvalues --   -0.45920  -0.45683  -0.44511  -0.43157  -0.43124
 Alpha  occ. eigenvalues --   -0.42191  -0.42063  -0.37782  -0.36732  -0.35397
 Alpha  occ. eigenvalues --   -0.35376  -0.34296  -0.33887  -0.26694  -0.26596
 Alpha  occ. eigenvalues --   -0.25399  -0.25147
 Alpha virt. eigenvalues --   -0.02392  -0.02237  -0.01048  -0.01007  -0.00945
 Alpha virt. eigenvalues --    0.00215   0.00369   0.00892   0.01944   0.02230
 Alpha virt. eigenvalues --    0.02818   0.02949   0.03826   0.04005   0.04408

 Mulliken charges:
               1
     1  C   -0.181313
     2  H    0.156701
     3  C   -0.135643
     4  H    0.149897
     5  C   -0.135643
     6  H    0.149897
     7  C   -0.135643
     8  H    0.149897
     9  C   -0.135643
    10  H    0.149897
    11  C   -0.181313
    12  H    0.156701
    13  C   -0.307329
    14  C   -0.139502
    15  H    0.178163
    16  H    0.127510
    17  C   -0.118491
    18  H    0.158113
    19  C   -0.136418
    20  H    0.151883
    21  C   -0.118491
    22  H    0.158113
    23  C   -0.139502
    24  H    0.178163
 Sum of Mulliken charges =   0.00000

 Dipole moment (field-independent basis, Debye):
    X=              0.0000    Y=              0.0000    Z=             -0.5308  Tot=              0.5308
 Quadrupole moment (field-independent basis, Debye-Ang):
   XX=            -71.8811   YY=            -64.9690   ZZ=            -73.0347
   XY=              0.0000   XZ=              0.0000   YZ=              0.0000

 Normal termination of Gaussian 09 at Sun Mar 19 03:16:55 2017.
