 Gaussian 09, Revision D.01,
 Gaussian 09:  EM64L-G09RevD.01 24-Apr-2013

 ---------------
 #p b3lyp 6-31g*
 ---------------

 ---------------------
 benzene dimer 2.50425
 ---------------------
 Symbolic Z-matrix:
 Charge =  0 Multiplicity = 1

                         Standard orientation:
 ---------------------------------------------------------------------
 Center     Atomic      Atomic             Coordinates (Angstroms)
 Number     Number       Type             X           Y           Z
 ---------------------------------------------------------------------
      1          6           0       -1.391500    0.000000   -2.500000
      2          1           0       -2.471500    0.000000   -2.500000
      3          6           0       -0.695750    1.205074   -2.500000
      4          1           0       -1.235750    2.140382   -2.500000
      5          6           0       -0.695750   -1.205074   -2.500000
      6          1           0       -1.235750   -2.140382   -2.500000
      7          6           0        0.695750    1.205074   -2.500000
      8          1           0        1.235750    2.140382   -2.500000
      9          6           0        0.695750   -1.205074   -2.500000
     10          1           0        1.235750   -2.140382   -2.500000
     11          6           0        1.391500    0.000000   -2.500000
     12          1           0        2.471500    0.000000   -2.500000
     13          6           0        0.000000    0.000000    1.108500
     14          6           0        0.000000   -1.205074    1.804250
     15          1           0        0.000000   -2.140382    1.264250
     16          1           0        0.000000    0.000000    0.028500
     17          6           0        0.000000   -1.205074    3.195750
     18          1           0        0.000000   -2.140382    3.735750
     19          6           0        0.000000    0.000000    3.891500
     20          1           0        0.000000    0.000000    4.971500
     21          6           0        0.000000    1.205074    3.195750
     22          1           0        0.000000    2.140382    3.735750
     23          6           0        0.000000    1.205074    1.804250
     24          1           0        0.000000    2.140382    1.264250
 ---------------------------------------------------------------------

 SCF Done:  E(RB3LYP) =  -464.497070681     A.U. after   13 cycles

 The electronic state is 1-A1.
 Alpha  occ. eigenvalues --  -10.19034 -10.19011 -10.18998 -10.18954 -10.18939
 Alpha  occ. eigenvalues --  -10.18918 -10.17865 -10.17829 -10.17787 -10.17684
 Alpha  occ. eigenvalues --  -10.17680 -10.17329  -0.85429  -0.84111  -0.74655
 Alpha  occ. eigenvalues --   -0.74628  -0.73424  -0.73320  -0.60352  -0.60347
 Alpha  occ. eigenvalues --   -0.59143  -0.59082  -0.52564  -0.51342  -0.46422
 Alpha  occ. eigenvalues --   -0.45261  -0.44418  -0.43151  -0.42314  -0.42284
 Alpha  occ. eigenvalues --   -0.41167  -0.41149  -0.36581  -0.35358  -0.34514
 Alpha  occ. eigenvalues --   -0.34496  -0.33335  -0.32945  -0.25289  -0.25264
 Alpha  occ. eigenvalues --   -0.23991  -0.23810
 Alpha virt. eigenvalues --   -0.00070  -0.00049   0.01206   0.01266   0.08840
 Alpha virt. eigenvalues --    0.10211   0.14015   0.14360   0.15378   0.15826
 Alpha virt. eigenvalues --    0.16164   0.17403   0.18071   0.18114   0.18933

 Mulliken charges:
               1
     1  C   -0.126600
     2  H    0.132435
     3  C   -0.130324
     4  H    0.131258
     5  C   -0.130324
     6  H    0.131258
     7  C   -0.130324
     8  H    0.131258
     9  C   -0.130324
    10  H    0.131258
    11  C   -0.126600
    12  H    0.132435
    13  C   -0.130811
    14  C   -0.135406
    15  H    0.121938
    16  H    0.158565
    17  C   -0.128843
    18  H    0.123205
    19  C   -0.128488
    20  H    0.123543
    21  C   -0.128843
    22  H    0.123205
    23  C   -0.135406
    24  H    0.121938
 Sum of Mulliken charges =   0.00000

 Dipole moment (field-independent basis, Debye):
    X=              0.0000    Y=              0.0000    Z=             -0.5830  Tot=              0.5830
 Quadrupole moment (field-independent basis, Debye-Ang):
   XX=            -69.6028   YY=            -62.9876   ZZ=            -70.3744
   XY=              0.0000   XZ=              0.0000   YZ=              0.0000

 Normal termination of Gaussian 09 at Sun Mar 19 00:44:15 2017.
