 Gaussian 09, Revision D.01,
 Gaussian 09:  EM64L-G09RevD.01 24-Apr-2013

 -------------------------------------------
 #p pbe1pbe empiricaldispersion=gd3bj 6-31g*
 -------------------------------------------

 ---------------------
 benzene dimer 3.00425
 ---------------------
 Symbolic Z-matrix:
 Charge =  0 Multiplicity = 1

                         Standard orientation:
 ---------------------------------------------------------------------
 Center     Atomic      Atomic             Coordinates (Angstroms)
 Number     Number       Type             X           Y           Z
 ---------------------------------------------------------------------
      1          6           0       -1.391500    0.000000   -2.750000
      2          1           0       -2.471500    0.000000   -2.750000
      3          6           0       -0.695750    1.205074   -2.750000
      4          1           0       -1.235750    2.140382   -2.750000
      5          6           0       -0.695750   -1.205074   -2.750000
      6          1           0       -1.235750   -2.140382   -2.750000
      7          6           0        0.695750    1.205074   -2.750000
      8          1           0        1.235750    2.140382   -2.750000
      9          6           0        0.695750   -1.205074   -2.750000
     10          1           0        1.235750   -2.140382   -2.750000
     11          6           0        1.391500    0.000000   -2.750000
     12          1           0        2.471500    0.000000   -2.750000
     13          6           0        0.000000    0.000000    1.358500
     14          6           0        0.000000   -1.205074    2.054250
     15          1           0        0.000000   -2.140382    1.514250
     16          1           0        0.000000    0.000000    0.278500
     17          6           0        0.000000   -1.205074    3.445750
     18          1           0        0.000000   -2.140382    3.985750
     19          6           0        0.000000    0.000000    4.141500
     20          1           0        0.000000    0.000000    5.221500
     21          6           0        0.000000    1.205074    3.445750
     22          1           0        0.000000    2.140382    3.985750
     23          6           0        0.000000    1.205074    2.054250
     24          1           0        0.000000    2.140382    1.514250
 ---------------------------------------------------------------------

 SCF Done:  E(RPBE1PBE) =  -463.950636583     A.U. after   13 cycles

 The electronic state is 1-A1.
 Alpha  occ. eigenvalues --  -10.23864 -10.23839 -10.23829 -10.23777 -10.23767
 Alpha  occ. eigenvalues --  -10.23742 -10.22988 -10.22949 -10.22907 -10.22842
 Alpha  occ. eigenvalues --  -10.22835 -10.22627  -0.87882  -0.86926  -0.76800
 Alpha  occ. eigenvalues --   -0.76782  -0.75891  -0.75816  -0.62058  -0.62054
 Alpha  occ. eigenvalues --   -0.61156  -0.61107  -0.54006  -0.53086  -0.47632
 Alpha  occ. eigenvalues --   -0.46734  -0.45708  -0.44770  -0.43361  -0.43338
 Alpha  occ. eigenvalues --   -0.42492  -0.42399  -0.37957  -0.36998  -0.35334
 Alpha  occ. eigenvalues --   -0.35319  -0.34455  -0.34286  -0.26158  -0.26143
 Alpha  occ. eigenvalues --   -0.25232  -0.25142
 Alpha virt. eigenvalues --    0.00576   0.00588   0.01489   0.01544   0.10066
 Alpha virt. eigenvalues --    0.10908   0.15653   0.15789   0.16478   0.16495
 Alpha virt. eigenvalues --    0.17297   0.18212   0.19477   0.19481   0.20157

 Mulliken charges:
               1
     1  C   -0.168219
     2  H    0.171844
     3  C   -0.170759
     4  H    0.170755
     5  C   -0.170759
     6  H    0.170755
     7  C   -0.170759
     8  H    0.170755
     9  C   -0.170759
    10  H    0.170755
    11  C   -0.168219
    12  H    0.171844
    13  C   -0.174772
    14  C   -0.171263
    15  H    0.165609
    16  H    0.190417
    17  C   -0.169116
    18  H    0.165232
    19  C   -0.169332
    20  H    0.165527
    21  C   -0.169116
    22  H    0.165232
    23  C   -0.171263
    24  H    0.165609
 Sum of Mulliken charges =   0.00000

 Dipole moment (field-independent basis, Debye):
    X=              0.0000    Y=              0.0000    Z=             -0.3839  Tot=              0.3839
 Quadrupole moment (field-independent basis, Debye-Ang):
   XX=            -69.4825   YY=            -61.8539   ZZ=            -70.1242
   XY=              0.0000   XZ=              0.0000   YZ=              0.0000

 Normal termination of Gaussian 09 at Sun Mar 19 01:35:06 2017.
