 Gaussian 09, Revision D.01,
 Gaussian 09:  EM64L-G09RevD.01 24-Apr-2013

 ------------------------------------------
 #p b3lyp empiricaldispersion=gd3bj cc-pVTZ
 ------------------------------------------

 ---------------------
 benzene dimer 4.90425
 ---------------------
 Symbolic Z-matrix:
 Charge =  0 Multiplicity = 1

                         Standard orientation:
 ---------------------------------------------------------------------
 Center     Atomic      Atomic             Coordinates (Angstroms)
 Number     Number       Type             X           Y           Z
 ---------------------------------------------------------------------
      1          6           0       -1.391500    0.000000   -3.700000
      2          1           0       -2.471500    0.000000   -3.700000
      3          6           0       -0.695750    1.205074   -3.700000
      4          1           0       -1.235750    2.140382   -3.700000
      5          6           0       -0.695750   -1.205074   -3.700000
      6          1           0       -1.235750   -2.140382   -3.700000
      7          6           0        0.695750    1.205074   -3.700000
      8          1           0        1.235750    2.140382   -3.700000
      9          6           0        0.695750   -1.205074   -3.700000
     10          1           0        1.235750   -2.140382   -3.700000
     11          6           0        1.391500    0.000000   -3.700000
     12          1           0        2.471500    0.000000   -3.700000
     13          6           0        0.000000    0.000000    2.308500
     14          6           0        0.000000   -1.205074    3.004250
     15          1           0        0.000000   -2.140382    2.464250
     16          1           0        0.000000    0.000000    1.228500
     17          6           0        0.000000   -1.205074    4.395750
     18          1           0        0.000000   -2.140382    4.935750
     19          6           0        0.000000    0.000000    5.091500
     20          1           0        0.000000    0.000000    6.171500
     21          6           0        0.000000    1.205074    4.395750
     22          1           0        0.000000    2.140382    4.935750
     23          6           0        0.000000    1.205074    3.004250
     24          1           0        0.000000    2.140382    2.464250
 ---------------------------------------------------------------------

 SCF Done:  E(RB3LYP) =  -464.705168662     A.U. after   11 cycles

 The electronic state is 1-A1.
 Alpha  occ. eigenvalues --  -10.17961 -10.17935 -10.17934 -10.17876 -10.17874
 Alpha  occ. eigenvalues --  -10.17848 -10.17655 -10.17626 -10.17605 -10.17562
 Alpha  occ. eigenvalues --  -10.17560 -10.17507  -0.85862  -0.85543  -0.75015
 Alpha  occ. eigenvalues --   -0.75011  -0.74703  -0.74686  -0.60705  -0.60703
 Alpha  occ. eigenvalues --   -0.60393  -0.60382  -0.52906  -0.52589  -0.46546
 Alpha  occ. eigenvalues --   -0.46231  -0.45149  -0.44831  -0.42639  -0.42633
 Alpha  occ. eigenvalues --   -0.42335  -0.42303  -0.37324  -0.37002  -0.34899
 Alpha  occ. eigenvalues --   -0.34895  -0.34593  -0.34566  -0.25939  -0.25934
 Alpha  occ. eigenvalues --   -0.25627  -0.25609
 Alpha virt. eigenvalues --   -0.01338  -0.01335  -0.01028  -0.01013   0.03726
 Alpha virt. eigenvalues --    0.04312   0.06956   0.07038   0.07311   0.07394
 Alpha virt. eigenvalues --    0.10116   0.10118   0.10385   0.10394   0.12717

 Mulliken charges:
               1
     1  C   -0.106107
     2  H    0.106511
     3  C   -0.106352
     4  H    0.106266
     5  C   -0.106352
     6  H    0.106266
     7  C   -0.106352
     8  H    0.106266
     9  C   -0.106352
    10  H    0.106266
    11  C   -0.106107
    12  H    0.106511
    13  C   -0.113224
    14  C   -0.107140
    15  H    0.105649
    16  H    0.119006
    17  C   -0.105518
    18  H    0.104693
    19  C   -0.106417
    20  H    0.104805
    21  C   -0.105518
    22  H    0.104693
    23  C   -0.107140
    24  H    0.105649
 Sum of Mulliken charges =   0.00000

 Dipole moment (field-independent basis, Debye):
    X=              0.0000    Y=              0.0000    Z=             -0.1085  Tot=              0.1085
 Quadrupole moment (field-independent basis, Debye-Ang):
   XX=            -71.6261   YY=            -64.2620   ZZ=            -71.9684
   XY=              0.0000   XZ=              0.0000   YZ=              0.0000

 Normal termination of Gaussian 09 at Sun Mar 19 00:25:17 2017.
