 Gaussian 09, Revision D.01,
 Gaussian 09:  EM64L-G09RevD.01 24-Apr-2013

 ------------------------------------------
 #p b3lyp empiricaldispersion=gd3bj cc-pVDZ
 ------------------------------------------

 ---------------------
 benzene dimer 2.50425
 ---------------------
 Symbolic Z-matrix:
 Charge =  0 Multiplicity = 1

                         Standard orientation:
 ---------------------------------------------------------------------
 Center     Atomic      Atomic             Coordinates (Angstroms)
 Number     Number       Type             X           Y           Z
 ---------------------------------------------------------------------
      1          6           0       -1.391500    0.000000   -2.500000
      2          1           0       -2.471500    0.000000   -2.500000
      3          6           0       -0.695750    1.205074   -2.500000
      4          1           0       -1.235750    2.140382   -2.500000
      5          6           0       -0.695750   -1.205074   -2.500000
      6          1           0       -1.235750   -2.140382   -2.500000
      7          6           0        0.695750    1.205074   -2.500000
      8          1           0        1.235750    2.140382   -2.500000
      9          6           0        0.695750   -1.205074   -2.500000
     10          1           0        1.235750   -2.140382   -2.500000
     11          6           0        1.391500    0.000000   -2.500000
     12          1           0        2.471500    0.000000   -2.500000
     13          6           0        0.000000    0.000000    1.108500
     14          6           0        0.000000   -1.205074    1.804250
     15          1           0        0.000000   -2.140382    1.264250
     16          1           0        0.000000    0.000000    0.028500
     17          6           0        0.000000   -1.205074    3.195750
     18          1           0        0.000000   -2.140382    3.735750
     19          6           0        0.000000    0.000000    3.891500
     20          1           0        0.000000    0.000000    4.971500
     21          6           0        0.000000    1.205074    3.195750
     22          1           0        0.000000    2.140382    3.735750
     23          6           0        0.000000    1.205074    1.804250
     24          1           0        0.000000    2.140382    1.264250
 ---------------------------------------------------------------------

 SCF Done:  E(RB3LYP) =  -464.567436083     A.U. after   13 cycles

 The electronic state is 1-A1.
 Alpha  occ. eigenvalues --  -10.19311 -10.19291 -10.19277 -10.19239 -10.19224
 Alpha  occ. eigenvalues --  -10.19208 -10.18208 -10.18177 -10.18139 -10.18039
 Alpha  occ. eigenvalues --  -10.18035 -10.17724  -0.86082  -0.84852  -0.75214
 Alpha  occ. eigenvalues --   -0.75189  -0.74070  -0.73977  -0.60796  -0.60792
 Alpha  occ. eigenvalues --   -0.59675  -0.59623  -0.52835  -0.51707  -0.46576
 Alpha  occ. eigenvalues --   -0.45510  -0.45085  -0.43914  -0.42632  -0.42603
 Alpha  occ. eigenvalues --   -0.41602  -0.41554  -0.37200  -0.36109  -0.34830
 Alpha  occ. eigenvalues --   -0.34813  -0.33741  -0.33384  -0.25989  -0.25939
 Alpha  occ. eigenvalues --   -0.24751  -0.24555
 Alpha virt. eigenvalues --   -0.01025  -0.00998   0.00201   0.00235   0.05228
 Alpha virt. eigenvalues --    0.07157   0.08681   0.09749   0.11044   0.11372
 Alpha virt. eigenvalues --    0.13233   0.13400   0.14484   0.14922   0.14930

 Mulliken charges:
               1
     1  C    0.036147
     2  H   -0.033003
     3  C    0.033325
     4  H   -0.033747
     5  C    0.033325
     6  H   -0.033747
     7  C    0.033325
     8  H   -0.033747
     9  C    0.033325
    10  H   -0.033747
    11  C    0.036147
    12  H   -0.033003
    13  C    0.064237
    14  C    0.023108
    15  H   -0.045881
    16  H   -0.012583
    17  C    0.037952
    18  H   -0.039984
    19  C    0.033200
    20  H   -0.039846
    21  C    0.037952
    22  H   -0.039984
    23  C    0.023108
    24  H   -0.045881
 Sum of Mulliken charges =   0.00000

 Dipole moment (field-independent basis, Debye):
    X=              0.0000    Y=              0.0000    Z=             -0.5208  Tot=              0.5208
 Quadrupole moment (field-independent basis, Debye-Ang):
   XX=            -70.6559   YY=            -64.2903   ZZ=            -71.5153
   XY=              0.0000   XZ=              0.0000   YZ=              0.0000

 Normal termination of Gaussian 09 at Sun Mar 19 00:44:57 2017.
