 Gaussian 09, Revision D.01,
 Gaussian 09:  EM64L-G09RevD.01 24-Apr-2013

 ----------------------------------------------
 #p b3lyp empiricaldispersion=gd3bj jul-cc-pVDZ
 ----------------------------------------------

 ---------------------
 benzene dimer 3.90425
 ---------------------
 Symbolic Z-matrix:
 Charge =  0 Multiplicity = 1

                         Standard orientation:
 ---------------------------------------------------------------------
 Center     Atomic      Atomic             Coordinates (Angstroms)
 Number     Number       Type             X           Y           Z
 ---------------------------------------------------------------------
      1          6           0       -1.391500    0.000000   -3.200000
      2          1           0       -2.471500    0.000000   -3.200000
      3          6           0       -0.695750    1.205074   -3.200000
      4          1           0       -1.235750    2.140382   -3.200000
      5          6           0       -0.695750   -1.205074   -3.200000
      6          1           0       -1.235750   -2.140382   -3.200000
      7          6           0        0.695750    1.205074   -3.200000
      8          1           0        1.235750    2.140382   -3.200000
      9          6           0        0.695750   -1.205074   -3.200000
     10          1           0        1.235750   -2.140382   -3.200000
     11          6           0        1.391500    0.000000   -3.200000
     12          1           0        2.471500    0.000000   -3.200000
     13          6           0        0.000000    0.000000    1.808500
     14          6           0        0.000000   -1.205074    2.504250
     15          1           0        0.000000   -2.140382    1.964250
     16          1           0        0.000000    0.000000    0.728500
     17          6           0        0.000000   -1.205074    3.895750
     18          1           0        0.000000   -2.140382    4.435750
     19          6           0        0.000000    0.000000    4.591500
     20          1           0        0.000000    0.000000    5.671500
     21          6           0        0.000000    1.205074    3.895750
     22          1           0        0.000000    2.140382    4.435750
     23          6           0        0.000000    1.205074    2.504250
     24          1           0        0.000000    2.140382    1.964250
 ---------------------------------------------------------------------

 SCF Done:  E(RB3LYP) =  -464.581491445     A.U. after   10 cycles

 The electronic state is 1-A1.
 Alpha  occ. eigenvalues --  -10.19460 -10.19443 -10.19439 -10.19388 -10.19384
 Alpha  occ. eigenvalues --  -10.19359 -10.19002 -10.18976 -10.18943 -10.18909
 Alpha  occ. eigenvalues --  -10.18905 -10.18817  -0.86375  -0.85888  -0.75486
 Alpha  occ. eigenvalues --   -0.75478  -0.75015  -0.74983  -0.61057  -0.61055
 Alpha  occ. eigenvalues --   -0.60586  -0.60565  -0.53121  -0.52641  -0.46770
 Alpha  occ. eigenvalues --   -0.46293  -0.45404  -0.44923  -0.42859  -0.42848
 Alpha  occ. eigenvalues --   -0.42403  -0.42344  -0.37564  -0.37070  -0.35051
 Alpha  occ. eigenvalues --   -0.35043  -0.34590  -0.34537  -0.26191  -0.26184
 Alpha  occ. eigenvalues --   -0.25716  -0.25679
 Alpha virt. eigenvalues --   -0.01881  -0.01858  -0.01378  -0.01374  -0.00296
 Alpha virt. eigenvalues --    0.00919   0.01184   0.01709   0.02461   0.02598
 Alpha virt. eigenvalues --    0.03874   0.03911   0.04652   0.04752   0.05488

 Mulliken charges:
               1
     1  C    0.200305
     2  H   -0.202758
     3  C    0.205127
     4  H   -0.203147
     5  C    0.205127
     6  H   -0.203147
     7  C    0.205127
     8  H   -0.203147
     9  C    0.205127
    10  H   -0.203147
    11  C    0.200305
    12  H   -0.202758
    13  C    0.362589
    14  C    0.128544
    15  H   -0.194846
    16  H   -0.206673
    17  C    0.207879
    18  H   -0.200845
    19  C    0.159607
    20  H   -0.200001
    21  C    0.207879
    22  H   -0.200845
    23  C    0.128544
    24  H   -0.194846
 Sum of Mulliken charges =   0.00000

 Dipole moment (field-independent basis, Debye):
    X=              0.0000    Y=              0.0000    Z=             -0.1877  Tot=              0.1877
 Quadrupole moment (field-independent basis, Debye-Ang):
   XX=            -72.3136   YY=            -65.1694   ZZ=            -72.8121
   XY=              0.0000   XZ=              0.0000   YZ=              0.0000

 Normal termination of Gaussian 09 at Sun Mar 19 00:53:01 2017.
