 Gaussian 09, Revision D.01,
 Gaussian 09:  EM64L-G09RevD.01 24-Apr-2013

 ----------------------------------------------
 #p b3lyp empiricaldispersion=gd3bj may-cc-pVQZ
 ----------------------------------------------

 ---------------------
 benzene dimer 2.70425
 ---------------------
 Symbolic Z-matrix:
 Charge =  0 Multiplicity = 1

                         Standard orientation:
 ---------------------------------------------------------------------
 Center     Atomic      Atomic             Coordinates (Angstroms)
 Number     Number       Type             X           Y           Z
 ---------------------------------------------------------------------
      1          6           0       -1.391500    0.000000   -2.600000
      2          1           0       -2.471500    0.000000   -2.600000
      3          6           0       -0.695750    1.205074   -2.600000
      4          1           0       -1.235750    2.140382   -2.600000
      5          6           0       -0.695750   -1.205074   -2.600000
      6          1           0       -1.235750   -2.140382   -2.600000
      7          6           0        0.695750    1.205074   -2.600000
      8          1           0        1.235750    2.140382   -2.600000
      9          6           0        0.695750   -1.205074   -2.600000
     10          1           0        1.235750   -2.140382   -2.600000
     11          6           0        1.391500    0.000000   -2.600000
     12          1           0        2.471500    0.000000   -2.600000
     13          6           0        0.000000    0.000000    1.208500
     14          6           0        0.000000   -1.205074    1.904250
     15          1           0        0.000000   -2.140382    1.364250
     16          1           0        0.000000    0.000000    0.128500
     17          6           0        0.000000   -1.205074    3.295750
     18          1           0        0.000000   -2.140382    3.835750
     19          6           0        0.000000    0.000000    3.991500
     20          1           0        0.000000    0.000000    5.071500
     21          6           0        0.000000    1.205074    3.295750
     22          1           0        0.000000    2.140382    3.835750
     23          6           0        0.000000    1.205074    1.904250
     24          1           0        0.000000    2.140382    1.364250
 ---------------------------------------------------------------------

 SCF Done:  E(RB3LYP) =  -464.743179632     A.U. after   10 cycles

 The electronic state is 1-A1.
 Alpha  occ. eigenvalues --  -10.18137 -10.18112 -10.18103 -10.18051 -10.18041
 Alpha  occ. eigenvalues --  -10.18017 -10.17242 -10.17208 -10.17161 -10.17095
 Alpha  occ. eigenvalues --  -10.17089 -10.16867  -0.86332  -0.85340  -0.75451
 Alpha  occ. eigenvalues --   -0.75430  -0.74512  -0.74438  -0.61114  -0.61109
 Alpha  occ. eigenvalues --   -0.60187  -0.60146  -0.53334  -0.52398  -0.46913
 Alpha  occ. eigenvalues --   -0.46012  -0.45603  -0.44645  -0.43073  -0.43047
 Alpha  occ. eigenvalues --   -0.42178  -0.42166  -0.37799  -0.36854  -0.35322
 Alpha  occ. eigenvalues --   -0.35304  -0.34419  -0.34183  -0.26519  -0.26480
 Alpha  occ. eigenvalues --   -0.25513  -0.25355
 Alpha virt. eigenvalues --   -0.02249  -0.02146  -0.01154  -0.01117  -0.01036
 Alpha virt. eigenvalues --    0.00158   0.00379   0.00896   0.01867   0.02172
 Alpha virt. eigenvalues --    0.02864   0.02961   0.03784   0.03937   0.04261

 Mulliken charges:
               1
     1  C   -0.178357
     2  H    0.155641
     3  C   -0.141572
     4  H    0.152611
     5  C   -0.141572
     6  H    0.152611
     7  C   -0.141572
     8  H    0.152611
     9  C   -0.141572
    10  H    0.152611
    11  C   -0.178357
    12  H    0.155641
    13  C   -0.164043
    14  C   -0.130591
    15  H    0.176122
    16  H    0.098648
    17  C   -0.150049
    18  H    0.157885
    19  C   -0.193546
    20  H    0.153479
    21  C   -0.150049
    22  H    0.157885
    23  C   -0.130591
    24  H    0.176122
 Sum of Mulliken charges =   0.00000

 Dipole moment (field-independent basis, Debye):
    X=              0.0000    Y=              0.0000    Z=             -0.4246  Tot=              0.4246
 Quadrupole moment (field-independent basis, Debye-Ang):
   XX=            -71.9802   YY=            -64.9376   ZZ=            -72.8782
   XY=              0.0000   XZ=              0.0000   YZ=              0.0000

 1\1\GINC-HOLY2A14108\SP\RB3LYP\May-CC-pVQZ\C12H12\ROOT\19-Mar-2017\0\\
 #p b3lyp empiricaldispersion=gd3bj may-cc-pVQZ\\benzene dimer 2.70425\
 \0,1\C,0,1.3915,0.,2.70425\H,0,2.4715,0.,2.70425\C,0,0.69575,1.2050743
 494,2.70425\H,0,1.23575,2.1403817855,2.70425\C,0,0.69575,-1.2050743494
 ,2.70425\H,0,1.23575,-2.1403817855,2.70425\C,0,-0.69575,1.2050743494,2
 .70425\H,0,-1.23575,2.1403817855,2.70425\C,0,-0.69575,-1.2050743494,2.
 70425\H,0,-1.23575,-2.1403817855,2.70425\C,0,-1.3915,0.,2.70425\H,0,-2
 .4715,0.,2.70425\C,0,0.,0.,-1.10425\C,0,0.,-1.2050743494,-1.8\H,0,0.,-

 Normal termination of Gaussian 09 at Sun Mar 19 02:31:38 2017.
