 Gaussian 09, Revision D.01,
 Gaussian 09:  EM64L-G09RevD.01 24-Apr-2013

 --------------------
 #p m062x may-cc-pVQZ
 --------------------

 ---------------
 benzene monomer
 ---------------
 Symbolic Z-matrix:
 Charge =  0 Multiplicity = 1

                         Standard orientation:
 ---------------------------------------------------------------------
 Center     Atomic      Atomic             Coordinates (Angstroms)
 Number     Number       Type             X           Y           Z
 ---------------------------------------------------------------------
      1          6           0        0.000000    1.391500    0.000000
      2          1           0        0.000000    2.471500    0.000000
      3          6           0        1.205074    0.695750    0.000000
      4          1           0        2.140382    1.235750    0.000000
      5          6           0       -1.205074    0.695750    0.000000
      6          1           0       -2.140382    1.235750    0.000000
      7          6           0        1.205074   -0.695750    0.000000
      8          1           0        2.140382   -1.235750    0.000000
      9          6           0       -1.205074   -0.695750    0.000000
     10          1           0       -2.140382   -1.235750    0.000000
     11          6           0        0.000000   -1.391500    0.000000
     12          1           0        0.000000   -2.471500    0.000000
 ---------------------------------------------------------------------

 SCF Done:  E(RM062X) =  -232.237646344     A.U. after    9 cycles

 The electronic state is 1-A1G.
 Alpha  occ. eigenvalues --  -10.54334 -10.54296 -10.54296 -10.54213 -10.54213
 Alpha  occ. eigenvalues --  -10.54173  -0.96087  -0.84412  -0.84412  -0.68738
 Alpha  occ. eigenvalues --   -0.68738  -0.60268  -0.53547  -0.51417  -0.48982
 Alpha  occ. eigenvalues --   -0.48982  -0.44136  -0.40397  -0.40397  -0.30984
 Alpha  occ. eigenvalues --   -0.30984
 Alpha virt. eigenvalues --    0.00536   0.01362   0.01362   0.01710   0.01710
 Alpha virt. eigenvalues --    0.03254   0.03254   0.04149   0.05598   0.05598
 Alpha virt. eigenvalues --    0.06013   0.06326   0.07234   0.09247   0.09247

 Mulliken charges:
               1
     1  C   -0.439739
     2  H    0.439739
     3  C   -0.439739
     4  H    0.439739
     5  C   -0.439739
     6  H    0.439739
     7  C   -0.439739
     8  H    0.439739
     9  C   -0.439739
    10  H    0.439739
    11  C   -0.439739
    12  H    0.439739
 Sum of Mulliken charges =   0.00000

 Dipole moment (field-independent basis, Debye):
    X=              0.0000    Y=              0.0000    Z=              0.0000  Tot=              0.0000
 Quadrupole moment (field-independent basis, Debye-Ang):
   XX=            -32.0143   YY=            -32.0143   ZZ=            -39.9765
   XY=              0.0000   XZ=              0.0000   YZ=              0.0000

 Normal termination of Gaussian 09 at Sun Mar 19 02:17:57 2017.
