 Gaussian 09, Revision D.01,
 Gaussian 09:  EM64L-G09RevD.01 24-Apr-2013

 ------------------------------------------
 #p b3lyp empiricaldispersion=gd3bj cc-pVTZ
 ------------------------------------------

 ---------------
 benzene monomer
 ---------------
 Symbolic Z-matrix:
 Charge =  0 Multiplicity = 1

                         Standard orientation:
 ---------------------------------------------------------------------
 Center     Atomic      Atomic             Coordinates (Angstroms)
 Number     Number       Type             X           Y           Z
 ---------------------------------------------------------------------
      1          6           0        0.000000    1.391500    0.000000
      2          1           0        0.000000    2.471500    0.000000
      3          6           0        1.205074    0.695750    0.000000
      4          1           0        2.140382    1.235750    0.000000
      5          6           0       -1.205074    0.695750    0.000000
      6          1           0       -2.140382    1.235750    0.000000
      7          6           0        1.205074   -0.695750    0.000000
      8          1           0        2.140382   -1.235750    0.000000
      9          6           0       -1.205074   -0.695750    0.000000
     10          1           0       -2.140382   -1.235750    0.000000
     11          6           0        0.000000   -1.391500    0.000000
     12          1           0        0.000000   -2.471500    0.000000
 ---------------------------------------------------------------------

 SCF Done:  E(RB3LYP) =  -232.352313697     A.U. after   10 cycles

 The electronic state is 1-A1G.
 Alpha  occ. eigenvalues --  -10.17848 -10.17822 -10.17822 -10.17763 -10.17763
 Alpha  occ. eigenvalues --  -10.17736  -0.85747  -0.74900  -0.74900  -0.60594
 Alpha  occ. eigenvalues --   -0.60594  -0.52798  -0.46442  -0.45036  -0.42527
 Alpha  occ. eigenvalues --   -0.42527  -0.37200  -0.34789  -0.34789  -0.25819
 Alpha  occ. eigenvalues --   -0.25819
 Alpha virt. eigenvalues --   -0.01222  -0.01222   0.03987   0.07105   0.07105
 Alpha virt. eigenvalues --    0.10197   0.10197   0.12789   0.14395   0.23183
 Alpha virt. eigenvalues --    0.23183   0.25715   0.26113   0.26571   0.26571

 Mulliken charges:
               1
     1  C   -0.105551
     2  H    0.105551
     3  C   -0.105551
     4  H    0.105551
     5  C   -0.105551
     6  H    0.105551
     7  C   -0.105551
     8  H    0.105551
     9  C   -0.105551
    10  H    0.105551
    11  C   -0.105551
    12  H    0.105551
 Sum of Mulliken charges =   0.00000

 Dipole moment (field-independent basis, Debye):
    X=              0.0000    Y=              0.0000    Z=              0.0000  Tot=              0.0000
 Quadrupole moment (field-independent basis, Debye-Ang):
   XX=            -32.1111   YY=            -32.1111   ZZ=            -39.5507
   XY=              0.0000   XZ=              0.0000   YZ=              0.0000

 Normal termination of Gaussian 09 at Sun Mar 19 00:23:02 2017.
