 Gaussian 09, Revision D.01,
 Gaussian 09:  EM64L-G09RevD.01 24-Apr-2013

 -------------------------------------------
 #p pbe1pbe empiricaldispersion=gd3bj 6-31g*
 -------------------------------------------

 ---------------------
 benzene dimer 4.90425
 ---------------------
 Symbolic Z-matrix:
 Charge =  0 Multiplicity = 1

                         Standard orientation:
 ---------------------------------------------------------------------
 Center     Atomic      Atomic             Coordinates (Angstroms)
 Number     Number       Type             X           Y           Z
 ---------------------------------------------------------------------
      1          6           0       -1.391500    0.000000   -3.700000
      2          1           0       -2.471500    0.000000   -3.700000
      3          6           0       -0.695750    1.205074   -3.700000
      4          1           0       -1.235750    2.140382   -3.700000
      5          6           0       -0.695750   -1.205074   -3.700000
      6          1           0       -1.235750   -2.140382   -3.700000
      7          6           0        0.695750    1.205074   -3.700000
      8          1           0        1.235750    2.140382   -3.700000
      9          6           0        0.695750   -1.205074   -3.700000
     10          1           0        1.235750   -2.140382   -3.700000
     11          6           0        1.391500    0.000000   -3.700000
     12          1           0        2.471500    0.000000   -3.700000
     13          6           0        0.000000    0.000000    2.308500
     14          6           0        0.000000   -1.205074    3.004250
     15          1           0        0.000000   -2.140382    2.464250
     16          1           0        0.000000    0.000000    1.228500
     17          6           0        0.000000   -1.205074    4.395750
     18          1           0        0.000000   -2.140382    4.935750
     19          6           0        0.000000    0.000000    5.091500
     20          1           0        0.000000    0.000000    6.171500
     21          6           0        0.000000    1.205074    4.395750
     22          1           0        0.000000    2.140382    4.935750
     23          6           0        0.000000    1.205074    3.004250
     24          1           0        0.000000    2.140382    2.464250
 ---------------------------------------------------------------------

 SCF Done:  E(RPBE1PBE) =  -463.947099648     A.U. after   12 cycles

 The electronic state is 1-A1.
 Alpha  occ. eigenvalues --  -10.23612 -10.23584 -10.23582 -10.23523 -10.23521
 Alpha  occ. eigenvalues --  -10.23492 -10.23299 -10.23266 -10.23244 -10.23200
 Alpha  occ. eigenvalues --  -10.23198 -10.23140  -0.87610  -0.87281  -0.76543
 Alpha  occ. eigenvalues --   -0.76539  -0.76223  -0.76204  -0.61823  -0.61822
 Alpha  occ. eigenvalues --   -0.61502  -0.61490  -0.53775  -0.53449  -0.47425
 Alpha  occ. eigenvalues --   -0.47100  -0.45459  -0.45132  -0.43123  -0.43117
 Alpha  occ. eigenvalues --   -0.42811  -0.42775  -0.37670  -0.37338  -0.35103
 Alpha  occ. eigenvalues --   -0.35098  -0.34787  -0.34759  -0.25871  -0.25866
 Alpha  occ. eigenvalues --   -0.25548  -0.25530
 Alpha virt. eigenvalues --    0.00841   0.00844   0.01162   0.01178   0.10267
 Alpha virt. eigenvalues --    0.10591   0.15909   0.15925   0.16185   0.16297
 Alpha virt. eigenvalues --    0.17542   0.17868   0.19644   0.19653   0.19932

 Mulliken charges:
               1
     1  C   -0.168816
     2  H    0.169296
     3  C   -0.169115
     4  H    0.168888
     5  C   -0.169115
     6  H    0.168888
     7  C   -0.169115
     8  H    0.168888
     9  C   -0.169115
    10  H    0.168888
    11  C   -0.168816
    12  H    0.169296
    13  C   -0.170685
    14  C   -0.168928
    15  H    0.168295
    16  H    0.175749
    17  C   -0.168603
    18  H    0.167362
    19  C   -0.168779
    20  H    0.167413
    21  C   -0.168603
    22  H    0.167362
    23  C   -0.168928
    24  H    0.168295
 Sum of Mulliken charges =   0.00000

 Dipole moment (field-independent basis, Debye):
    X=              0.0000    Y=              0.0000    Z=             -0.0901  Tot=              0.0901
 Quadrupole moment (field-independent basis, Debye-Ang):
   XX=            -69.6378   YY=            -61.7793   ZZ=            -70.0403
   XY=              0.0000   XZ=              0.0000   YZ=              0.0000

 1\1\GINC-HOLY2C01203\SP\RPBE1PBE\6-31G(d)\C12H12\EKWAN\19-Mar-2017\0\\
 #p pbe1pbe empiricaldispersion=gd3bj 6-31g*\\benzene dimer 4.90425\\0,
 1\C,0,1.3915,0.,4.90425\H,0,2.4715,0.,4.90425\C,0,0.69575,1.2050743494
 ,4.90425\H,0,1.23575,2.1403817855,4.90425\C,0,0.69575,-1.2050743494,4.
 90425\H,0,1.23575,-2.1403817855,4.90425\C,0,-0.69575,1.2050743494,4.90
 425\H,0,-1.23575,2.1403817855,4.90425\C,0,-0.69575,-1.2050743494,4.904
 25\H,0,-1.23575,-2.1403817855,4.90425\C,0,-1.3915,0.,4.90425\H,0,-2.47
 15,0.,4.90425\C,0,0.,0.,-1.10425\C,0,0.,-1.2050743494,-1.8\H,0,0.,-2.1

 Normal termination of Gaussian 09 at Sun Mar 19 01:34:03 2017.
