 Gaussian 09, Revision D.01,
 Gaussian 09:  EM64L-G09RevD.01 24-Apr-2013

 --------------------
 #p m062x may-cc-pVQZ
 --------------------

 ---------------------
 benzene dimer 2.90425
 ---------------------
 Symbolic Z-matrix:
 Charge =  0 Multiplicity = 1

                         Standard orientation:
 ---------------------------------------------------------------------
 Center     Atomic      Atomic             Coordinates (Angstroms)
 Number     Number       Type             X           Y           Z
 ---------------------------------------------------------------------
      1          6           0       -1.391500    0.000000   -2.700000
      2          1           0       -2.471500    0.000000   -2.700000
      3          6           0       -0.695750    1.205074   -2.700000
      4          1           0       -1.235750    2.140382   -2.700000
      5          6           0       -0.695750   -1.205074   -2.700000
      6          1           0       -1.235750   -2.140382   -2.700000
      7          6           0        0.695750    1.205074   -2.700000
      8          1           0        1.235750    2.140382   -2.700000
      9          6           0        0.695750   -1.205074   -2.700000
     10          1           0        1.235750   -2.140382   -2.700000
     11          6           0        1.391500    0.000000   -2.700000
     12          1           0        2.471500    0.000000   -2.700000
     13          6           0        0.000000    0.000000    1.308500
     14          6           0        0.000000   -1.205074    2.004250
     15          1           0        0.000000   -2.140382    1.464250
     16          1           0        0.000000    0.000000    0.228500
     17          6           0        0.000000   -1.205074    3.395750
     18          1           0        0.000000   -2.140382    3.935750
     19          6           0        0.000000    0.000000    4.091500
     20          1           0        0.000000    0.000000    5.171500
     21          6           0        0.000000    1.205074    3.395750
     22          1           0        0.000000    2.140382    3.935750
     23          6           0        0.000000    1.205074    2.004250
     24          1           0        0.000000    2.140382    1.464250
 ---------------------------------------------------------------------

 SCF Done:  E(RM062X) =  -464.477728358     A.U. after   10 cycles

 The electronic state is 1-A1.
 Alpha  occ. eigenvalues --  -10.54699 -10.54665 -10.54655 -10.54582 -10.54571
 Alpha  occ. eigenvalues --  -10.54537 -10.53838 -10.53792 -10.53736 -10.53679
 Alpha  occ. eigenvalues --  -10.53671 -10.53490  -0.96470  -0.95542  -0.84781
 Alpha  occ. eigenvalues --   -0.84762  -0.83896  -0.83826  -0.69081  -0.69076
 Alpha  occ. eigenvalues --   -0.68201  -0.68160  -0.60606  -0.59713  -0.53859
 Alpha  occ. eigenvalues --   -0.52991  -0.51772  -0.50865  -0.49331  -0.49305
 Alpha  occ. eigenvalues --   -0.48481  -0.48446  -0.44492  -0.43607  -0.40734
 Alpha  occ. eigenvalues --   -0.40720  -0.39876  -0.39714  -0.31412  -0.31397
 Alpha  occ. eigenvalues --   -0.30488  -0.30365
 Alpha virt. eigenvalues --   -0.00305   0.00595   0.00780   0.01133   0.01148
 Alpha virt. eigenvalues --    0.01294   0.02144   0.02246   0.02252   0.02262
 Alpha virt. eigenvalues --    0.02944   0.03089   0.03848   0.04133   0.04137

 Mulliken charges:
               1
     1  C   -0.477108
     2  H    0.470632
     3  C   -0.473711
     4  H    0.470798
     5  C   -0.473711
     6  H    0.470798
     7  C   -0.473711
     8  H    0.470798
     9  C   -0.473711
    10  H    0.470798
    11  C   -0.477108
    12  H    0.470632
    13  C   -0.676903
    14  C   -0.385982
    15  H    0.476693
    16  H    0.455593
    17  C   -0.414531
    18  H    0.451780
    19  C   -0.438689
    20  H    0.428681
    21  C   -0.414531
    22  H    0.451780
    23  C   -0.385982
    24  H    0.476693
 Sum of Mulliken charges =   0.00000

 Dipole moment (field-independent basis, Debye):
    X=              0.0000    Y=              0.0000    Z=             -0.3948  Tot=              0.3948
 Quadrupole moment (field-independent basis, Debye-Ang):
   XX=            -71.7821   YY=            -64.1612   ZZ=            -72.3381
   XY=              0.0000   XZ=              0.0000   YZ=              0.0000

 Normal termination of Gaussian 09 at Sun Mar 19 03:20:02 2017.
