 Gaussian 09, Revision D.01,
 Gaussian 09:  EM64L-G09RevD.01 24-Apr-2013

 ------------------------------------------
 #p b3lyp empiricaldispersion=gd3bj cc-pVTZ
 ------------------------------------------

 ---------------------
 benzene dimer 1.90425
 ---------------------
 Symbolic Z-matrix:
 Charge =  0 Multiplicity = 1

                         Standard orientation:
 ---------------------------------------------------------------------
 Center     Atomic      Atomic             Coordinates (Angstroms)
 Number     Number       Type             X           Y           Z
 ---------------------------------------------------------------------
      1          6           0       -1.391500    0.000000   -2.200000
      2          1           0       -2.471500    0.000000   -2.200000
      3          6           0       -0.695750    1.205074   -2.200000
      4          1           0       -1.235750    2.140382   -2.200000
      5          6           0       -0.695750   -1.205074   -2.200000
      6          1           0       -1.235750   -2.140382   -2.200000
      7          6           0        0.695750    1.205074   -2.200000
      8          1           0        1.235750    2.140382   -2.200000
      9          6           0        0.695750   -1.205074   -2.200000
     10          1           0        1.235750   -2.140382   -2.200000
     11          6           0        1.391500    0.000000   -2.200000
     12          1           0        2.471500    0.000000   -2.200000
     13          6           0        0.000000    0.000000    0.808500
     14          6           0        0.000000   -1.205074    1.504250
     15          1           0        0.000000   -2.140382    0.964250
     16          1           0        0.000000    0.000000   -0.271500
     17          6           0        0.000000   -1.205074    2.895750
     18          1           0        0.000000   -2.140382    3.435750
     19          6           0        0.000000    0.000000    3.591500
     20          1           0        0.000000    0.000000    4.671500
     21          6           0        0.000000    1.205074    2.895750
     22          1           0        0.000000    2.140382    3.435750
     23          6           0        0.000000    1.205074    1.504250
     24          1           0        0.000000    2.140382    0.964250
 ---------------------------------------------------------------------

 SCF Done:  E(RB3LYP) =  -464.703679057     A.U. after   13 cycles

 The electronic state is 1-A1.
 Alpha  occ. eigenvalues --  -10.18506 -10.18483 -10.18475 -10.18424 -10.18415
 Alpha  occ. eigenvalues --  -10.18392 -10.16897 -10.16875 -10.16805 -10.16635
 Alpha  occ. eigenvalues --  -10.16632 -10.15989  -0.86710  -0.84655  -0.75674
 Alpha  occ. eigenvalues --   -0.75630  -0.73899  -0.73765  -0.61258  -0.61255
 Alpha  occ. eigenvalues --   -0.59574  -0.59563  -0.53565  -0.51861  -0.47021
 Alpha  occ. eigenvalues --   -0.45722  -0.45630  -0.43963  -0.43237  -0.43193
 Alpha  occ. eigenvalues --   -0.42328  -0.41584  -0.37212  -0.36213  -0.35438
 Alpha  occ. eigenvalues --   -0.35411  -0.33791  -0.32681  -0.27036  -0.26719
 Alpha  occ. eigenvalues --   -0.24882  -0.24326
 Alpha virt. eigenvalues --   -0.02269  -0.02039  -0.00076  -0.00021   0.03036
 Alpha virt. eigenvalues --    0.05440   0.05553   0.06790   0.08492   0.08624
 Alpha virt. eigenvalues --    0.09858   0.10616   0.12443   0.12574   0.13089

 Mulliken charges:
               1
     1  C   -0.086710
     2  H    0.106476
     3  C   -0.112529
     4  H    0.109454
     5  C   -0.112529
     6  H    0.109454
     7  C   -0.112529
     8  H    0.109454
     9  C   -0.112529
    10  H    0.109454
    11  C   -0.086710
    12  H    0.106476
    13  C    0.008269
    14  C   -0.125428
    15  H    0.094543
    16  H    0.041319
    17  C   -0.101866
    18  H    0.101507
    19  C   -0.115433
    20  H    0.101105
    21  C   -0.101866
    22  H    0.101507
    23  C   -0.125428
    24  H    0.094543
 Sum of Mulliken charges =   0.00000

 Dipole moment (field-independent basis, Debye):
    X=              0.0000    Y=              0.0000    Z=             -0.7698  Tot=              0.7698
 Quadrupole moment (field-independent basis, Debye-Ang):
   XX=            -71.1207   YY=            -64.6033   ZZ=            -72.9108
   XY=              0.0000   XZ=              0.0000   YZ=              0.0000

 Normal termination of Gaussian 09 at Sun Mar 19 00:29:04 2017.
