 Gaussian 09, Revision D.01,
 Gaussian 09:  EM64L-G09RevD.01 24-Apr-2013

 --------------------
 #p m062x may-cc-pVQZ
 --------------------

 ---------------------
 benzene dimer 5.40425
 ---------------------
 Symbolic Z-matrix:
 Charge =  0 Multiplicity = 1

                         Standard orientation:
 ---------------------------------------------------------------------
 Center     Atomic      Atomic             Coordinates (Angstroms)
 Number     Number       Type             X           Y           Z
 ---------------------------------------------------------------------
      1          6           0       -1.391500    0.000000   -3.950000
      2          1           0       -2.471500    0.000000   -3.950000
      3          6           0       -0.695750    1.205074   -3.950000
      4          1           0       -1.235750    2.140382   -3.950000
      5          6           0       -0.695750   -1.205074   -3.950000
      6          1           0       -1.235750   -2.140382   -3.950000
      7          6           0        0.695750    1.205074   -3.950000
      8          1           0        1.235750    2.140382   -3.950000
      9          6           0        0.695750   -1.205074   -3.950000
     10          1           0        1.235750   -2.140382   -3.950000
     11          6           0        1.391500    0.000000   -3.950000
     12          1           0        2.471500    0.000000   -3.950000
     13          6           0        0.000000    0.000000    2.558500
     14          6           0        0.000000   -1.205074    3.254250
     15          1           0        0.000000   -2.140382    2.714250
     16          1           0        0.000000    0.000000    1.478500
     17          6           0        0.000000   -1.205074    4.645750
     18          1           0        0.000000   -2.140382    5.185750
     19          6           0        0.000000    0.000000    5.341500
     20          1           0        0.000000    0.000000    6.421500
     21          6           0        0.000000    1.205074    4.645750
     22          1           0        0.000000    2.140382    5.185750
     23          6           0        0.000000    1.205074    3.254250
     24          1           0        0.000000    2.140382    2.714250
 ---------------------------------------------------------------------

 SCF Done:  E(RM062X) =  -464.475501925     A.U. after   10 cycles

 The electronic state is 1-A1.
 Alpha  occ. eigenvalues --  -10.54428 -10.54391 -10.54389 -10.54308 -10.54306
 Alpha  occ. eigenvalues --  -10.54267 -10.54168 -10.54129 -10.54114 -10.54043
 Alpha  occ. eigenvalues --  -10.54041 -10.53990  -0.96183  -0.95915  -0.84508
 Alpha  occ. eigenvalues --   -0.84505  -0.84245  -0.84232  -0.68830  -0.68829
 Alpha  occ. eigenvalues --   -0.68567  -0.68558  -0.60359  -0.60092  -0.53635
 Alpha  occ. eigenvalues --   -0.53369  -0.51511  -0.51243  -0.49076  -0.49070
 Alpha  occ. eigenvalues --   -0.48818  -0.48793  -0.44237  -0.43967  -0.40488
 Alpha  occ. eigenvalues --   -0.40485  -0.40229  -0.40211  -0.31085  -0.31081
 Alpha  occ. eigenvalues --   -0.30821  -0.30807
 Alpha virt. eigenvalues --   -0.00528   0.00729   0.00762   0.01134   0.01575
 Alpha virt. eigenvalues --    0.01587   0.01723   0.01773   0.01876   0.01895
 Alpha virt. eigenvalues --    0.03020   0.03141   0.03327   0.03389   0.03708

 Mulliken charges:
               1
     1  C   -0.437026
     2  H    0.441348
     3  C   -0.449288
     4  H    0.447192
     5  C   -0.449288
     6  H    0.447192
     7  C   -0.449288
     8  H    0.447192
     9  C   -0.449288
    10  H    0.447192
    11  C   -0.437026
    12  H    0.441348
    13  C   -0.426766
    14  C   -0.461370
    15  H    0.446170
    16  H    0.446418
    17  C   -0.441984
    18  H    0.445480
    19  C   -0.436827
    20  H    0.440324
    21  C   -0.441984
    22  H    0.445480
    23  C   -0.461370
    24  H    0.446170
 Sum of Mulliken charges =   0.00000

 Dipole moment (field-independent basis, Debye):
    X=              0.0000    Y=              0.0000    Z=             -0.0857  Tot=              0.0857
 Quadrupole moment (field-independent basis, Debye-Ang):
   XX=            -71.9670   YY=            -64.0606   ZZ=            -72.2424
   XY=              0.0000   XZ=              0.0000   YZ=              0.0000

 Normal termination of Gaussian 09 at Sun Mar 19 03:44:35 2017.
