 Gaussian 09, Revision D.01,
 Gaussian 09:  EM64L-G09RevD.01 24-Apr-2013

 -------------------------------------------
 #p pbe1pbe empiricaldispersion=gd3bj 6-31g*
 -------------------------------------------

 ----------------------------
 benzene dimer 2.495750000000
 ----------------------------
 Symbolic Z-matrix:
 Charge =  0 Multiplicity = 1

                         Standard orientation:
 ---------------------------------------------------------------------
 Center     Atomic      Atomic             Coordinates (Angstroms)
 Number     Number       Type             X           Y           Z
 ---------------------------------------------------------------------
      1          6           0       -1.391500    0.000000   -2.495750
      2          1           0       -2.471500    0.000000   -2.495750
      3          6           0       -0.695750    1.205074   -2.495750
      4          1           0       -1.235750    2.140382   -2.495750
      5          6           0       -0.695750   -1.205074   -2.495750
      6          1           0       -1.235750   -2.140382   -2.495750
      7          6           0        0.695750    1.205074   -2.495750
      8          1           0        1.235750    2.140382   -2.495750
      9          6           0        0.695750   -1.205074   -2.495750
     10          1           0        1.235750   -2.140382   -2.495750
     11          6           0        1.391500    0.000000   -2.495750
     12          1           0        2.471500    0.000000   -2.495750
     13          6           0        0.000000    0.000000    1.104250
     14          6           0        0.000000   -1.205074    1.800000
     15          1           0        0.000000   -2.140382    1.260000
     16          1           0        0.000000    0.000000    0.024250
     17          6           0        0.000000   -1.205074    3.191500
     18          1           0        0.000000   -2.140382    3.731500
     19          6           0        0.000000    0.000000    3.887250
     20          1           0        0.000000    0.000000    4.967250
     21          6           0        0.000000    1.205074    3.191500
     22          1           0        0.000000    2.140382    3.731500
     23          6           0        0.000000    1.205074    1.800000
     24          1           0        0.000000    2.140382    1.260000
 ---------------------------------------------------------------------

 SCF Done:  E(RPBE1PBE) =  -463.952144909     A.U. after   13 cycles

 The electronic state is 1-A1.
 Alpha  occ. eigenvalues --  -10.24022 -10.23998 -10.23984 -10.23937 -10.23920
 Alpha  occ. eigenvalues --  -10.23898 -10.22795 -10.22755 -10.22711 -10.22604
 Alpha  occ. eigenvalues --  -10.22599 -10.22244  -0.88082  -0.86702  -0.76971
 Alpha  occ. eigenvalues --   -0.76942  -0.75685  -0.75574  -0.62207  -0.62202
 Alpha  occ. eigenvalues --   -0.60941  -0.60878  -0.54162  -0.52880  -0.47759
 Alpha  occ. eigenvalues --   -0.46543  -0.45867  -0.44543  -0.43515  -0.43481
 Alpha  occ. eigenvalues --   -0.42334  -0.42297  -0.38026  -0.36790  -0.35479
 Alpha  occ. eigenvalues --   -0.35458  -0.34247  -0.33868  -0.26393  -0.26372
 Alpha  occ. eigenvalues --   -0.25038  -0.24849
 Alpha virt. eigenvalues --    0.00372   0.00397   0.01711   0.01773   0.09893
 Alpha virt. eigenvalues --    0.11283   0.15340   0.15704   0.16738   0.17118
 Alpha virt. eigenvalues --    0.17129   0.18426   0.19377   0.19414   0.20252

 Mulliken charges:
               1
     1  C   -0.167532
     2  H    0.173416
     3  C   -0.171814
     4  H    0.172056
     5  C   -0.171814
     6  H    0.172056
     7  C   -0.171814
     8  H    0.172056
     9  C   -0.171814
    10  H    0.172056
    11  C   -0.167532
    12  H    0.173416
    13  C   -0.164775
    14  C   -0.174996
    15  H    0.162105
    16  H    0.195264
    17  C   -0.170149
    18  H    0.163939
    19  C   -0.169353
    20  H    0.164328
    21  C   -0.170149
    22  H    0.163939
    23  C   -0.174996
    24  H    0.162105
 Sum of Mulliken charges =   0.00000

 Dipole moment (field-independent basis, Debye):
    X=              0.0000    Y=              0.0000    Z=             -0.5743  Tot=              0.5743
 Quadrupole moment (field-independent basis, Debye-Ang):
   XX=            -69.3695   YY=            -61.9322   ZZ=            -70.2140
   XY=              0.0000   XZ=              0.0000   YZ=              0.0000

 Normal termination of Gaussian 09 at Sun Mar 19 01:34:28 2017.
