 Gaussian 09, Revision D.01,
 Gaussian 09:  EM64L-G09RevD.01 24-Apr-2013

 ------------------------------------------------
 #p pbe1pbe empiricaldispersion=gd3bj may-cc-pVQZ
 ------------------------------------------------

 ---------------------
 benzene dimer 2.00425
 ---------------------
 Symbolic Z-matrix:
 Charge =  0 Multiplicity = 1

                         Standard orientation:
 ---------------------------------------------------------------------
 Center     Atomic      Atomic             Coordinates (Angstroms)
 Number     Number       Type             X           Y           Z
 ---------------------------------------------------------------------
      1          6           0       -1.391500    0.000000   -2.250000
      2          1           0       -2.471500    0.000000   -2.250000
      3          6           0       -0.695750    1.205074   -2.250000
      4          1           0       -1.235750    2.140382   -2.250000
      5          6           0       -0.695750   -1.205074   -2.250000
      6          1           0       -1.235750   -2.140382   -2.250000
      7          6           0        0.695750    1.205074   -2.250000
      8          1           0        1.235750    2.140382   -2.250000
      9          6           0        0.695750   -1.205074   -2.250000
     10          1           0        1.235750   -2.140382   -2.250000
     11          6           0        1.391500    0.000000   -2.250000
     12          1           0        2.471500    0.000000   -2.250000
     13          6           0        0.000000    0.000000    0.858500
     14          6           0        0.000000   -1.205074    1.554250
     15          1           0        0.000000   -2.140382    1.014250
     16          1           0        0.000000    0.000000   -0.221500
     17          6           0        0.000000   -1.205074    2.945750
     18          1           0        0.000000   -2.140382    3.485750
     19          6           0        0.000000    0.000000    3.641500
     20          1           0        0.000000    0.000000    4.721500
     21          6           0        0.000000    1.205074    2.945750
     22          1           0        0.000000    2.140382    3.485750
     23          6           0        0.000000    1.205074    1.554250
     24          1           0        0.000000    2.140382    1.014250
 ---------------------------------------------------------------------

 SCF Done:  E(RPBE1PBE) =  -464.133421304     A.U. after   10 cycles

 The electronic state is 1-A1.
 Alpha  occ. eigenvalues --  -10.23493 -10.23466 -10.23457 -10.23401 -10.23391
 Alpha  occ. eigenvalues --  -10.23364 -10.21979 -10.21950 -10.21881 -10.21739
 Alpha  occ. eigenvalues --  -10.21736 -10.21188  -0.89154  -0.87291  -0.77837
 Alpha  occ. eigenvalues --   -0.77796  -0.76195  -0.76063  -0.62997  -0.62994
 Alpha  occ. eigenvalues --   -0.61417  -0.61391  -0.55026  -0.53433  -0.48280
 Alpha  occ. eigenvalues --   -0.47002  -0.46933  -0.45357  -0.44298  -0.44252
 Alpha  occ. eigenvalues --   -0.43427  -0.42758  -0.38651  -0.37706  -0.36280
 Alpha  occ. eigenvalues --   -0.36251  -0.34737  -0.33861  -0.27949  -0.27695
 Alpha  occ. eigenvalues --   -0.25981  -0.25500
 Alpha virt. eigenvalues --   -0.02001  -0.01737  -0.00250   0.00022   0.00129
 Alpha virt. eigenvalues --    0.01138   0.01193   0.01679   0.02901   0.03051
 Alpha virt. eigenvalues --    0.03497   0.03678   0.04627   0.04948   0.05336

 Mulliken charges:
               1
     1  C   -0.172276
     2  H    0.154557
     3  C   -0.136692
     4  H    0.158998
     5  C   -0.136692
     6  H    0.158998
     7  C   -0.136692
     8  H    0.158998
     9  C   -0.136692
    10  H    0.158998
    11  C   -0.172276
    12  H    0.154557
    13  C   -0.565676
    14  C   -0.111880
    15  H    0.209082
    16  H    0.171318
    17  C   -0.131492
    18  H    0.180848
    19  C   -0.128754
    20  H    0.176214
    21  C   -0.131492
    22  H    0.180848
    23  C   -0.111880
    24  H    0.209082
 Sum of Mulliken charges =   0.00000

 Dipole moment (field-independent basis, Debye):
    X=              0.0000    Y=              0.0000    Z=             -0.7512  Tot=              0.7512
 Quadrupole moment (field-independent basis, Debye-Ang):
   XX=            -70.9669   YY=            -63.8503   ZZ=            -72.5877
   XY=              0.0000   XZ=              0.0000   YZ=              0.0000

 Normal termination of Gaussian 09 at Sun Mar 19 03:26:59 2017.
