 Gaussian 09, Revision D.01,
 Gaussian 09:  EM64L-G09RevD.01 24-Apr-2013

 ----------------------------------------------
 #p b3lyp empiricaldispersion=gd3bj jun-cc-pVTZ
 ----------------------------------------------

 ---------------------
 benzene dimer 2.30425
 ---------------------
 Symbolic Z-matrix:
 Charge =  0 Multiplicity = 1

                         Standard orientation:
 ---------------------------------------------------------------------
 Center     Atomic      Atomic             Coordinates (Angstroms)
 Number     Number       Type             X           Y           Z
 ---------------------------------------------------------------------
      1          6           0       -1.391500    0.000000   -2.400000
      2          1           0       -2.471500    0.000000   -2.400000
      3          6           0       -0.695750    1.205074   -2.400000
      4          1           0       -1.235750    2.140382   -2.400000
      5          6           0       -0.695750   -1.205074   -2.400000
      6          1           0       -1.235750   -2.140382   -2.400000
      7          6           0        0.695750    1.205074   -2.400000
      8          1           0        1.235750    2.140382   -2.400000
      9          6           0        0.695750   -1.205074   -2.400000
     10          1           0        1.235750   -2.140382   -2.400000
     11          6           0        1.391500    0.000000   -2.400000
     12          1           0        2.471500    0.000000   -2.400000
     13          6           0        0.000000    0.000000    1.008500
     14          6           0        0.000000   -1.205074    1.704250
     15          1           0        0.000000   -2.140382    1.164250
     16          1           0        0.000000    0.000000   -0.071500
     17          6           0        0.000000   -1.205074    3.095750
     18          1           0        0.000000   -2.140382    3.635750
     19          6           0        0.000000    0.000000    3.791500
     20          1           0        0.000000    0.000000    4.871500
     21          6           0        0.000000    1.205074    3.095750
     22          1           0        0.000000    2.140382    3.635750
     23          6           0        0.000000    1.205074    1.704250
     24          1           0        0.000000    2.140382    1.164250
 ---------------------------------------------------------------------

 SCF Done:  E(RB3LYP) =  -464.711285812     A.U. after   10 cycles

 The electronic state is 1-A1.
 Alpha  occ. eigenvalues --  -10.18530 -10.18507 -10.18498 -10.18448 -10.18437
 Alpha  occ. eigenvalues --  -10.18415 -10.17381 -10.17351 -10.17298 -10.17194
 Alpha  occ. eigenvalues --  -10.17190 -10.16831  -0.86535  -0.85191  -0.75612
 Alpha  occ. eigenvalues --   -0.75582  -0.74376  -0.74277  -0.61233  -0.61229
 Alpha  occ. eigenvalues --   -0.60028  -0.59987  -0.53443  -0.52237  -0.46997
 Alpha  occ. eigenvalues --   -0.45888  -0.45709  -0.44457  -0.43180  -0.43144
 Alpha  occ. eigenvalues --   -0.42220  -0.42011  -0.37739  -0.36674  -0.35412
 Alpha  occ. eigenvalues --   -0.35389  -0.34236  -0.33741  -0.26758  -0.26631
 Alpha  occ. eigenvalues --   -0.25344  -0.25048
 Alpha virt. eigenvalues --   -0.02433  -0.02255  -0.00932  -0.00858  -0.00772
 Alpha virt. eigenvalues --    0.00522   0.00642   0.01205   0.02323   0.02602
 Alpha virt. eigenvalues --    0.03209   0.03314   0.04494   0.04551   0.04922

 Mulliken charges:
               1
     1  C   -0.136133
     2  H    0.122245
     3  C   -0.129574
     4  H    0.125143
     5  C   -0.129574
     6  H    0.125143
     7  C   -0.129574
     8  H    0.125143
     9  C   -0.129574
    10  H    0.125143
    11  C   -0.136133
    12  H    0.122245
    13  C    0.202903
    14  C   -0.206718
    15  H    0.115407
    16  H    0.074758
    17  C   -0.133352
    18  H    0.118460
    19  C   -0.118636
    20  H    0.098879
    21  C   -0.133352
    22  H    0.118460
    23  C   -0.206718
    24  H    0.115407
 Sum of Mulliken charges =   0.00000

 Dipole moment (field-independent basis, Debye):
    X=              0.0000    Y=              0.0000    Z=             -0.5706  Tot=              0.5706
 Quadrupole moment (field-independent basis, Debye-Ang):
   XX=            -71.8950   YY=            -65.0106   ZZ=            -73.1492
   XY=              0.0000   XZ=              0.0000   YZ=              0.0000

 Normal termination of Gaussian 09 at Sun Mar 19 00:56:16 2017.
