 Gaussian 09, Revision D.01,
 Gaussian 09:  EM64L-G09RevD.01 24-Apr-2013

 ------------------------------------------
 #p b3lyp empiricaldispersion=gd3bj cc-pVQZ
 ------------------------------------------

 ---------------
 benzene monomer
 ---------------
 Symbolic Z-matrix:
 Charge =  0 Multiplicity = 1

                         Standard orientation:
 ---------------------------------------------------------------------
 Center     Atomic      Atomic             Coordinates (Angstroms)
 Number     Number       Type             X           Y           Z
 ---------------------------------------------------------------------
      1          6           0        0.000000    1.391500    0.000000
      2          1           0        0.000000    2.471500    0.000000
      3          6           0        1.205074    0.695750    0.000000
      4          1           0        2.140382    1.235750    0.000000
      5          6           0       -1.205074    0.695750    0.000000
      6          1           0       -2.140382    1.235750    0.000000
      7          6           0        1.205074   -0.695750    0.000000
      8          1           0        2.140382   -1.235750    0.000000
      9          6           0       -1.205074   -0.695750    0.000000
     10          1           0       -2.140382   -1.235750    0.000000
     11          6           0        0.000000   -1.391500    0.000000
     12          1           0        0.000000   -2.471500    0.000000
 ---------------------------------------------------------------------

 SCF Done:  E(RB3LYP) =  -232.369010802     A.U. after   10 cycles

 The electronic state is 1-A1G.
 Alpha  occ. eigenvalues --  -10.17680 -10.17652 -10.17652 -10.17591 -10.17591
 Alpha  occ. eigenvalues --  -10.17562  -0.85836  -0.74982  -0.74982  -0.60684
 Alpha  occ. eigenvalues --   -0.60684  -0.52912  -0.46531  -0.45155  -0.42639
 Alpha  occ. eigenvalues --   -0.42639  -0.37331  -0.34901  -0.34901  -0.25955
 Alpha  occ. eigenvalues --   -0.25955
 Alpha virt. eigenvalues --   -0.01485  -0.01485   0.02734   0.05390   0.05390
 Alpha virt. eigenvalues --    0.08130   0.08130   0.11074   0.13884   0.17793
 Alpha virt. eigenvalues --    0.19169   0.19483   0.19839   0.19839   0.22682

 Mulliken charges:
               1
     1  C   -0.115913
     2  H    0.115913
     3  C   -0.115913
     4  H    0.115913
     5  C   -0.115913
     6  H    0.115913
     7  C   -0.115913
     8  H    0.115913
     9  C   -0.115913
    10  H    0.115913
    11  C   -0.115913
    12  H    0.115913
 Sum of Mulliken charges =   0.00000

 Dipole moment (field-independent basis, Debye):
    X=              0.0000    Y=              0.0000    Z=              0.0000  Tot=              0.0000
 Quadrupole moment (field-independent basis, Debye-Ang):
   XX=            -32.2283   YY=            -32.2283   ZZ=            -39.6896
   XY=              0.0000   XZ=              0.0000   YZ=              0.0000

 Normal termination of Gaussian 09 at Sun Mar 19 01:04:45 2017.
