 Gaussian 09, Revision D.01,
 Gaussian 09:  EM64L-G09RevD.01 24-Apr-2013

 ----------------------------------------------
 #p b3lyp empiricaldispersion=gd3bj jun-cc-pVTZ
 ----------------------------------------------

 ---------------------
 benzene dimer 2.10425
 ---------------------
 Symbolic Z-matrix:
 Charge =  0 Multiplicity = 1

                         Standard orientation:
 ---------------------------------------------------------------------
 Center     Atomic      Atomic             Coordinates (Angstroms)
 Number     Number       Type             X           Y           Z
 ---------------------------------------------------------------------
      1          6           0       -1.391500    0.000000   -2.300000
      2          1           0       -2.471500    0.000000   -2.300000
      3          6           0       -0.695750    1.205074   -2.300000
      4          1           0       -1.235750    2.140382   -2.300000
      5          6           0       -0.695750   -1.205074   -2.300000
      6          1           0       -1.235750   -2.140382   -2.300000
      7          6           0        0.695750    1.205074   -2.300000
      8          1           0        1.235750    2.140382   -2.300000
      9          6           0        0.695750   -1.205074   -2.300000
     10          1           0        1.235750   -2.140382   -2.300000
     11          6           0        1.391500    0.000000   -2.300000
     12          1           0        2.471500    0.000000   -2.300000
     13          6           0        0.000000    0.000000    0.908500
     14          6           0        0.000000   -1.205074    1.604250
     15          1           0        0.000000   -2.140382    1.064250
     16          1           0        0.000000    0.000000   -0.171500
     17          6           0        0.000000   -1.205074    2.995750
     18          1           0        0.000000   -2.140382    3.535750
     19          6           0        0.000000    0.000000    3.691500
     20          1           0        0.000000    0.000000    4.771500
     21          6           0        0.000000    1.205074    2.995750
     22          1           0        0.000000    2.140382    3.535750
     23          6           0        0.000000    1.205074    1.604250
     24          1           0        0.000000    2.140382    1.064250
 ---------------------------------------------------------------------

 SCF Done:  E(RB3LYP) =  -464.709709690     A.U. after   10 cycles

 The electronic state is 1-A1.
 Alpha  occ. eigenvalues --  -10.18593 -10.18569 -10.18561 -10.18510 -10.18500
 Alpha  occ. eigenvalues --  -10.18478 -10.17274 -10.17247 -10.17187 -10.17056
 Alpha  occ. eigenvalues --  -10.17052 -10.16577  -0.86670  -0.85060  -0.75703
 Alpha  occ. eigenvalues --   -0.75667  -0.74261  -0.74147  -0.61304  -0.61300
 Alpha  occ. eigenvalues --   -0.59914  -0.59883  -0.53544  -0.52151  -0.47058
 Alpha  occ. eigenvalues --   -0.45837  -0.45781  -0.44334  -0.43262  -0.43222
 Alpha  occ. eigenvalues --   -0.42340  -0.41908  -0.37613  -0.36566  -0.35481
 Alpha  occ. eigenvalues --   -0.35456  -0.34123  -0.33386  -0.26950  -0.26742
 Alpha  occ. eigenvalues --   -0.25241  -0.24831
 Alpha virt. eigenvalues --   -0.02573  -0.02342  -0.00792  -0.00792  -0.00693
 Alpha virt. eigenvalues --    0.00567   0.00636   0.01199   0.02380   0.02632
 Alpha virt. eigenvalues --    0.03159   0.03302   0.04545   0.04578   0.05028

 Mulliken charges:
               1
     1  C   -0.132773
     2  H    0.120663
     3  C   -0.129299
     4  H    0.127016
     5  C   -0.129299
     6  H    0.127016
     7  C   -0.129299
     8  H    0.127016
     9  C   -0.129299
    10  H    0.127016
    11  C   -0.132773
    12  H    0.120663
    13  C    0.235195
    14  C   -0.220184
    15  H    0.112487
    16  H    0.054081
    17  C   -0.128546
    18  H    0.119068
    19  C   -0.117772
    20  H    0.096196
    21  C   -0.128546
    22  H    0.119068
    23  C   -0.220184
    24  H    0.112487
 Sum of Mulliken charges =   0.00000

 Dipole moment (field-independent basis, Debye):
    X=              0.0000    Y=              0.0000    Z=             -0.6634  Tot=              0.6634
 Quadrupole moment (field-independent basis, Debye-Ang):
   XX=            -71.7928   YY=            -65.0423   ZZ=            -73.3382
   XY=              0.0000   XZ=              0.0000   YZ=              0.0000

 Normal termination of Gaussian 09 at Sun Mar 19 00:51:17 2017.
