 Gaussian 09, Revision D.01,
 Gaussian 09:  EM64L-G09RevD.01 24-Apr-2013

 ------------------------------------------
 #p b3lyp empiricaldispersion=gd3bj cc-pVTZ
 ------------------------------------------

 ---------------------
 benzene dimer 3.40425
 ---------------------
 Symbolic Z-matrix:
 Charge =  0 Multiplicity = 1

                         Standard orientation:
 ---------------------------------------------------------------------
 Center     Atomic      Atomic             Coordinates (Angstroms)
 Number     Number       Type             X           Y           Z
 ---------------------------------------------------------------------
      1          6           0       -1.391500    0.000000   -2.950000
      2          1           0       -2.471500    0.000000   -2.950000
      3          6           0       -0.695750    1.205074   -2.950000
      4          1           0       -1.235750    2.140382   -2.950000
      5          6           0       -0.695750   -1.205074   -2.950000
      6          1           0       -1.235750   -2.140382   -2.950000
      7          6           0        0.695750    1.205074   -2.950000
      8          1           0        1.235750    2.140382   -2.950000
      9          6           0        0.695750   -1.205074   -2.950000
     10          1           0        1.235750   -2.140382   -2.950000
     11          6           0        1.391500    0.000000   -2.950000
     12          1           0        2.471500    0.000000   -2.950000
     13          6           0        0.000000    0.000000    1.558500
     14          6           0        0.000000   -1.205074    2.254250
     15          1           0        0.000000   -2.140382    1.714250
     16          1           0        0.000000    0.000000    0.478500
     17          6           0        0.000000   -1.205074    3.645750
     18          1           0        0.000000   -2.140382    4.185750
     19          6           0        0.000000    0.000000    4.341500
     20          1           0        0.000000    0.000000    5.421500
     21          6           0        0.000000    1.205074    3.645750
     22          1           0        0.000000    2.140382    4.185750
     23          6           0        0.000000    1.205074    2.254250
     24          1           0        0.000000    2.140382    1.714250
 ---------------------------------------------------------------------

 SCF Done:  E(RB3LYP) =  -464.706986343     A.U. after   12 cycles

 The electronic state is 1-A1.
 Alpha  occ. eigenvalues --  -10.18100 -10.18077 -10.18070 -10.18018 -10.18010
 Alpha  occ. eigenvalues --  -10.17987 -10.17474 -10.17440 -10.17401 -10.17360
 Alpha  occ. eigenvalues --  -10.17352 -10.17226  -0.86012  -0.85339  -0.75159
 Alpha  occ. eigenvalues --   -0.75147  -0.74512  -0.74465  -0.60837  -0.60833
 Alpha  occ. eigenvalues --   -0.60193  -0.60163  -0.53034  -0.52379  -0.46663
 Alpha  occ. eigenvalues --   -0.46018  -0.45286  -0.44623  -0.42772  -0.42756
 Alpha  occ. eigenvalues --   -0.42150  -0.42074  -0.37485  -0.36806  -0.35028
 Alpha  occ. eigenvalues --   -0.35017  -0.34400  -0.34310  -0.26101  -0.26093
 Alpha  occ. eigenvalues --   -0.25444  -0.25384
 Alpha virt. eigenvalues --   -0.01493  -0.01487  -0.00834  -0.00811   0.03271
 Alpha virt. eigenvalues --    0.04727   0.06270   0.06983   0.07664   0.07783
 Alpha virt. eigenvalues --    0.09971   0.10048   0.10562   0.10652   0.12660

 Mulliken charges:
               1
     1  C   -0.105542
     2  H    0.107266
     3  C   -0.108168
     4  H    0.107404
     5  C   -0.108168
     6  H    0.107404
     7  C   -0.108168
     8  H    0.107404
     9  C   -0.108168
    10  H    0.107404
    11  C   -0.105542
    12  H    0.107266
    13  C   -0.102296
    14  C   -0.122063
    15  H    0.105120
    16  H    0.138894
    17  C   -0.102064
    18  H    0.103924
    19  C   -0.110867
    20  H    0.104042
    21  C   -0.102064
    22  H    0.103924
    23  C   -0.122063
    24  H    0.105120
 Sum of Mulliken charges =   0.00000

 Dipole moment (field-independent basis, Debye):
    X=              0.0000    Y=              0.0000    Z=             -0.2642  Tot=              0.2642
 Quadrupole moment (field-independent basis, Debye-Ang):
   XX=            -71.5462   YY=            -64.3305   ZZ=            -72.1297
   XY=              0.0000   XZ=              0.0000   YZ=              0.0000

 Normal termination of Gaussian 09 at Sun Mar 19 00:28:42 2017.
