 Gaussian 09, Revision D.01,
 Gaussian 09:  EM64L-G09RevD.01 24-Apr-2013

 ----------------------------------------------
 #p b3lyp empiricaldispersion=gd3bj jul-cc-pVDZ
 ----------------------------------------------

 ---------------------
 benzene dimer 2.70425
 ---------------------
 Symbolic Z-matrix:
 Charge =  0 Multiplicity = 1

                         Standard orientation:
 ---------------------------------------------------------------------
 Center     Atomic      Atomic             Coordinates (Angstroms)
 Number     Number       Type             X           Y           Z
 ---------------------------------------------------------------------
      1          6           0       -1.391500    0.000000   -2.600000
      2          1           0       -2.471500    0.000000   -2.600000
      3          6           0       -0.695750    1.205074   -2.600000
      4          1           0       -1.235750    2.140382   -2.600000
      5          6           0       -0.695750   -1.205074   -2.600000
      6          1           0       -1.235750   -2.140382   -2.600000
      7          6           0        0.695750    1.205074   -2.600000
      8          1           0        1.235750    2.140382   -2.600000
      9          6           0        0.695750   -1.205074   -2.600000
     10          1           0        1.235750   -2.140382   -2.600000
     11          6           0        1.391500    0.000000   -2.600000
     12          1           0        2.471500    0.000000   -2.600000
     13          6           0        0.000000    0.000000    1.208500
     14          6           0        0.000000   -1.205074    1.904250
     15          1           0        0.000000   -2.140382    1.364250
     16          1           0        0.000000    0.000000    0.128500
     17          6           0        0.000000   -1.205074    3.295750
     18          1           0        0.000000   -2.140382    3.835750
     19          6           0        0.000000    0.000000    3.991500
     20          1           0        0.000000    0.000000    5.071500
     21          6           0        0.000000    1.205074    3.295750
     22          1           0        0.000000    2.140382    3.835750
     23          6           0        0.000000    1.205074    1.904250
     24          1           0        0.000000    2.140382    1.364250
 ---------------------------------------------------------------------

 SCF Done:  E(RB3LYP) =  -464.584739672     A.U. after   11 cycles

 The electronic state is 1-A1.
 Alpha  occ. eigenvalues --  -10.19640 -10.19625 -10.19615 -10.19570 -10.19559
 Alpha  occ. eigenvalues --  -10.19537 -10.18752 -10.18724 -10.18682 -10.18610
 Alpha  occ. eigenvalues --  -10.18607 -10.18375  -0.86578  -0.85604  -0.75671
 Alpha  occ. eigenvalues --   -0.75651  -0.74750  -0.74678  -0.61222  -0.61218
 Alpha  occ. eigenvalues --   -0.60312  -0.60272  -0.53286  -0.52369  -0.46916
 Alpha  occ. eigenvalues --   -0.46030  -0.45575  -0.44635  -0.43027  -0.43002
 Alpha  occ. eigenvalues --   -0.42150  -0.42140  -0.37732  -0.36803  -0.35212
 Alpha  occ. eigenvalues --   -0.35196  -0.34326  -0.34093  -0.26459  -0.26416
 Alpha  occ. eigenvalues --   -0.25467  -0.25310
 Alpha virt. eigenvalues --   -0.02156  -0.02051  -0.01075  -0.01033  -0.00299
 Alpha virt. eigenvalues --    0.00956   0.01054   0.01676   0.02743   0.03011
 Alpha virt. eigenvalues --    0.03866   0.03877   0.05218   0.05352   0.05583

 Mulliken charges:
               1
     1  C    0.228895
     2  H   -0.210598
     3  C    0.204988
     4  H   -0.209706
     5  C    0.204988
     6  H   -0.209706
     7  C    0.204988
     8  H   -0.209706
     9  C    0.204988
    10  H   -0.209706
    11  C    0.228895
    12  H   -0.210598
    13  C    0.454016
    14  C    0.236456
    15  H   -0.192791
    16  H   -0.321819
    17  C    0.097366
    18  H   -0.199247
    19  C    0.168538
    20  H   -0.202027
    21  C    0.097366
    22  H   -0.199247
    23  C    0.236456
    24  H   -0.192791
 Sum of Mulliken charges =   0.00000

 Dipole moment (field-independent basis, Debye):
    X=              0.0000    Y=              0.0000    Z=             -0.4225  Tot=              0.4225
 Quadrupole moment (field-independent basis, Debye-Ang):
   XX=            -72.1457   YY=            -65.2538   ZZ=            -72.9977
   XY=              0.0000   XZ=              0.0000   YZ=              0.0000

 Normal termination of Gaussian 09 at Sun Mar 19 00:49:58 2017.
