 Gaussian 09, Revision D.01,
 Gaussian 09:  EM64L-G09RevD.01 24-Apr-2013

 ----------------------------------------------
 #p b3lyp empiricaldispersion=gd3bj jul-cc-pVDZ
 ----------------------------------------------

 ---------------------
 benzene dimer 3.40425
 ---------------------
 Symbolic Z-matrix:
 Charge =  0 Multiplicity = 1

                         Standard orientation:
 ---------------------------------------------------------------------
 Center     Atomic      Atomic             Coordinates (Angstroms)
 Number     Number       Type             X           Y           Z
 ---------------------------------------------------------------------
      1          6           0       -1.391500    0.000000   -2.950000
      2          1           0       -2.471500    0.000000   -2.950000
      3          6           0       -0.695750    1.205074   -2.950000
      4          1           0       -1.235750    2.140382   -2.950000
      5          6           0       -0.695750   -1.205074   -2.950000
      6          1           0       -1.235750   -2.140382   -2.950000
      7          6           0        0.695750    1.205074   -2.950000
      8          1           0        1.235750    2.140382   -2.950000
      9          6           0        0.695750   -1.205074   -2.950000
     10          1           0        1.235750   -2.140382   -2.950000
     11          6           0        1.391500    0.000000   -2.950000
     12          1           0        2.471500    0.000000   -2.950000
     13          6           0        0.000000    0.000000    1.558500
     14          6           0        0.000000   -1.205074    2.254250
     15          1           0        0.000000   -2.140382    1.714250
     16          1           0        0.000000    0.000000    0.478500
     17          6           0        0.000000   -1.205074    3.645750
     18          1           0        0.000000   -2.140382    4.185750
     19          6           0        0.000000    0.000000    4.341500
     20          1           0        0.000000    0.000000    5.421500
     21          6           0        0.000000    1.205074    3.645750
     22          1           0        0.000000    2.140382    4.185750
     23          6           0        0.000000    1.205074    2.254250
     24          1           0        0.000000    2.140382    1.714250
 ---------------------------------------------------------------------

 SCF Done:  E(RB3LYP) =  -464.582490460     A.U. after   11 cycles

 The electronic state is 1-A1.
 Alpha  occ. eigenvalues --  -10.19516 -10.19500 -10.19494 -10.19445 -10.19439
 Alpha  occ. eigenvalues --  -10.19415 -10.18924 -10.18897 -10.18859 -10.18819
 Alpha  occ. eigenvalues --  -10.18814 -10.18691  -0.86435  -0.85800  -0.75543
 Alpha  occ. eigenvalues --   -0.75532  -0.74932  -0.74888  -0.61110  -0.61107
 Alpha  occ. eigenvalues --   -0.60500  -0.60472  -0.53172  -0.52552  -0.46817
 Alpha  occ. eigenvalues --   -0.46204  -0.45459  -0.44834  -0.42912  -0.42897
 Alpha  occ. eigenvalues --   -0.42323  -0.42252  -0.37631  -0.36986  -0.35102
 Alpha  occ. eigenvalues --   -0.35092  -0.34508  -0.34421  -0.26258  -0.26255
 Alpha  occ. eigenvalues --   -0.25638  -0.25576
 Alpha virt. eigenvalues --   -0.01961  -0.01919  -0.01284  -0.01277  -0.00301
 Alpha virt. eigenvalues --    0.00920   0.01113   0.01696   0.02571   0.02791
 Alpha virt. eigenvalues --    0.03888   0.03895   0.04971   0.05000   0.05514

 Mulliken charges:
               1
     1  C    0.215936
     2  H   -0.206180
     3  C    0.202198
     4  H   -0.204887
     5  C    0.202198
     6  H   -0.204887
     7  C    0.202198
     8  H   -0.204887
     9  C    0.202198
    10  H   -0.204887
    11  C    0.215936
    12  H   -0.206180
    13  C    0.384637
    14  C    0.157546
    15  H   -0.194133
    16  H   -0.221017
    17  C    0.166899
    18  H   -0.200279
    19  C    0.168325
    20  H   -0.200769
    21  C    0.166899
    22  H   -0.200279
    23  C    0.157546
    24  H   -0.194133
 Sum of Mulliken charges =   0.00000

 Dipole moment (field-independent basis, Debye):
    X=              0.0000    Y=              0.0000    Z=             -0.2602  Tot=              0.2602
 Quadrupole moment (field-independent basis, Debye-Ang):
   XX=            -72.2703   YY=            -65.1989   ZZ=            -72.8567
   XY=              0.0000   XZ=              0.0000   YZ=              0.0000

 1\1\GINC-HOLY2A14108\SP\RB3LYP\Jul-CC-pVDZ\C12H12\ROOT\19-Mar-2017\0\\
 #p b3lyp empiricaldispersion=gd3bj jul-cc-pVDZ\\benzene dimer 3.40425\
 \0,1\C,0,1.3915,0.,3.40425\H,0,2.4715,0.,3.40425\C,0,0.69575,1.2050743
 494,3.40425\H,0,1.23575,2.1403817855,3.40425\C,0,0.69575,-1.2050743494
 ,3.40425\H,0,1.23575,-2.1403817855,3.40425\C,0,-0.69575,1.2050743494,3
 .40425\H,0,-1.23575,2.1403817855,3.40425\C,0,-0.69575,-1.2050743494,3.
 40425\H,0,-1.23575,-2.1403817855,3.40425\C,0,-1.3915,0.,3.40425\H,0,-2
 .4715,0.,3.40425\C,0,0.,0.,-1.10425\C,0,0.,-1.2050743494,-1.8\H,0,0.,-

 Normal termination of Gaussian 09 at Sun Mar 19 00:54:35 2017.
