 Gaussian 09, Revision D.01,
 Gaussian 09:  EM64L-G09RevD.01 24-Apr-2013

 ----------------------------------------------
 #p b3lyp empiricaldispersion=gd3bj may-cc-pVQZ
 ----------------------------------------------

 ---------------------
 benzene dimer 4.40425
 ---------------------
 Symbolic Z-matrix:
 Charge =  0 Multiplicity = 1

                         Standard orientation:
 ---------------------------------------------------------------------
 Center     Atomic      Atomic             Coordinates (Angstroms)
 Number     Number       Type             X           Y           Z
 ---------------------------------------------------------------------
      1          6           0       -1.391500    0.000000   -3.450000
      2          1           0       -2.471500    0.000000   -3.450000
      3          6           0       -0.695750    1.205074   -3.450000
      4          1           0       -1.235750    2.140382   -3.450000
      5          6           0       -0.695750   -1.205074   -3.450000
      6          1           0       -1.235750   -2.140382   -3.450000
      7          6           0        0.695750    1.205074   -3.450000
      8          1           0        1.235750    2.140382   -3.450000
      9          6           0        0.695750   -1.205074   -3.450000
     10          1           0        1.235750   -2.140382   -3.450000
     11          6           0        1.391500    0.000000   -3.450000
     12          1           0        2.471500    0.000000   -3.450000
     13          6           0        0.000000    0.000000    2.058500
     14          6           0        0.000000   -1.205074    2.754250
     15          1           0        0.000000   -2.140382    2.214250
     16          1           0        0.000000    0.000000    0.978500
     17          6           0        0.000000   -1.205074    4.145750
     18          1           0        0.000000   -2.140382    4.685750
     19          6           0        0.000000    0.000000    4.841500
     20          1           0        0.000000    0.000000    5.921500
     21          6           0        0.000000    1.205074    4.145750
     22          1           0        0.000000    2.140382    4.685750
     23          6           0        0.000000    1.205074    2.754250
     24          1           0        0.000000    2.140382    2.214250
 ---------------------------------------------------------------------

 SCF Done:  E(RB3LYP) =  -464.739761330     A.U. after   15 cycles

 The electronic state is 1-A1.
 Alpha  occ. eigenvalues --  -10.17918 -10.17891 -10.17888 -10.17830 -10.17827
 Alpha  occ. eigenvalues --  -10.17799 -10.17553 -10.17521 -10.17495 -10.17453
 Alpha  occ. eigenvalues --  -10.17451 -10.17384  -0.86076  -0.85692  -0.75214
 Alpha  occ. eigenvalues --   -0.75209  -0.74840  -0.74818  -0.60902  -0.60900
 Alpha  occ. eigenvalues --   -0.60527  -0.60513  -0.53123  -0.52742  -0.46726
 Alpha  occ. eigenvalues --   -0.46347  -0.45384  -0.45002  -0.42855  -0.42847
 Alpha  occ. eigenvalues --   -0.42491  -0.42449  -0.37576  -0.37188  -0.35114
 Alpha  occ. eigenvalues --   -0.35108  -0.34747  -0.34712  -0.26200  -0.26193
 Alpha  occ. eigenvalues --   -0.25824  -0.25799
 Alpha virt. eigenvalues --   -0.01919  -0.01908  -0.01531  -0.01524  -0.01028
 Alpha virt. eigenvalues --   -0.00015   0.00510   0.00913   0.01547   0.01662
 Alpha virt. eigenvalues --    0.02968   0.03024   0.03554   0.03636   0.03640

 Mulliken charges:
               1
     1  C   -0.179037
     2  H    0.159152
     3  C   -0.151612
     4  H    0.160818
     5  C   -0.151612
     6  H    0.160818
     7  C   -0.151612
     8  H    0.160818
     9  C   -0.151612
    10  H    0.160818
    11  C   -0.179037
    12  H    0.159152
    13  C   -0.207143
    14  C   -0.134763
    15  H    0.161297
    16  H    0.195853
    17  C   -0.166544
    18  H    0.159395
    19  C   -0.184782
    20  H    0.160249
    21  C   -0.166544
    22  H    0.159395
    23  C   -0.134763
    24  H    0.161297
 Sum of Mulliken charges =   0.00000

 Dipole moment (field-independent basis, Debye):
    X=              0.0000    Y=              0.0000    Z=             -0.1396  Tot=              0.1396
 Quadrupole moment (field-independent basis, Debye-Ang):
   XX=            -72.1829   YY=            -64.8574   ZZ=            -72.6105
   XY=              0.0000   XZ=              0.0000   YZ=              0.0000

 Normal termination of Gaussian 09 at Sun Mar 19 02:19:59 2017.
