 Gaussian 09, Revision D.01,
 Gaussian 09:  EM64L-G09RevD.01 24-Apr-2013

 ----------------------------------------------
 #p b3lyp empiricaldispersion=gd3bj jul-cc-pVDZ
 ----------------------------------------------

 ---------------------
 benzene dimer 2.30425
 ---------------------
 Symbolic Z-matrix:
 Charge =  0 Multiplicity = 1

                         Standard orientation:
 ---------------------------------------------------------------------
 Center     Atomic      Atomic             Coordinates (Angstroms)
 Number     Number       Type             X           Y           Z
 ---------------------------------------------------------------------
      1          6           0       -1.391500    0.000000   -2.400000
      2          1           0       -2.471500    0.000000   -2.400000
      3          6           0       -0.695750    1.205074   -2.400000
      4          1           0       -1.235750    2.140382   -2.400000
      5          6           0       -0.695750   -1.205074   -2.400000
      6          1           0       -1.235750   -2.140382   -2.400000
      7          6           0        0.695750    1.205074   -2.400000
      8          1           0        1.235750    2.140382   -2.400000
      9          6           0        0.695750   -1.205074   -2.400000
     10          1           0        1.235750   -2.140382   -2.400000
     11          6           0        1.391500    0.000000   -2.400000
     12          1           0        2.471500    0.000000   -2.400000
     13          6           0        0.000000    0.000000    1.008500
     14          6           0        0.000000   -1.205074    1.704250
     15          1           0        0.000000   -2.140382    1.164250
     16          1           0        0.000000    0.000000   -0.071500
     17          6           0        0.000000   -1.205074    3.095750
     18          1           0        0.000000   -2.140382    3.635750
     19          6           0        0.000000    0.000000    3.791500
     20          1           0        0.000000    0.000000    4.871500
     21          6           0        0.000000    1.205074    3.095750
     22          1           0        0.000000    2.140382    3.635750
     23          6           0        0.000000    1.205074    1.704250
     24          1           0        0.000000    2.140382    1.164250
 ---------------------------------------------------------------------

 SCF Done:  E(RB3LYP) =  -464.584969380     A.U. after   11 cycles

 The electronic state is 1-A1.
 Alpha  occ. eigenvalues --  -10.19743 -10.19728 -10.19717 -10.19672 -10.19661
 Alpha  occ. eigenvalues --  -10.19640 -10.18592 -10.18567 -10.18519 -10.18406
 Alpha  occ. eigenvalues --  -10.18404 -10.18020  -0.86739  -0.85417  -0.75796
 Alpha  occ. eigenvalues --   -0.75767  -0.74581  -0.74485  -0.61326  -0.61322
 Alpha  occ. eigenvalues --   -0.60139  -0.60102  -0.53410  -0.52225  -0.47006
 Alpha  occ. eigenvalues --   -0.45914  -0.45681  -0.44452  -0.43141  -0.43107
 Alpha  occ. eigenvalues --   -0.42206  -0.41993  -0.37682  -0.36638  -0.35314
 Alpha  occ. eigenvalues --   -0.35292  -0.34158  -0.33667  -0.26707  -0.26574
 Alpha  occ. eigenvalues --   -0.25312  -0.25016
 Alpha virt. eigenvalues --   -0.02355  -0.02174  -0.00873  -0.00793  -0.00316
 Alpha virt. eigenvalues --    0.01002   0.01034   0.01664   0.02852   0.03091
 Alpha virt. eigenvalues --    0.03815   0.03841   0.05215   0.05596   0.05627

 Mulliken charges:
               1
     1  C    0.243875
     2  H   -0.213072
     3  C    0.206918
     4  H   -0.214050
     5  C    0.206918
     6  H   -0.214050
     7  C    0.206918
     8  H   -0.214050
     9  C    0.206918
    10  H   -0.214050
    11  C    0.243875
    12  H   -0.213072
    13  C    0.676424
    14  C    0.223091
    15  H   -0.191051
    16  H   -0.475041
    17  C    0.065702
    18  H   -0.199770
    19  C    0.172761
    20  H   -0.203166
    21  C    0.065702
    22  H   -0.199770
    23  C    0.223091
    24  H   -0.191051
 Sum of Mulliken charges =   0.00000

 Dipole moment (field-independent basis, Debye):
    X=              0.0000    Y=              0.0000    Z=             -0.5671  Tot=              0.5671
 Quadrupole moment (field-independent basis, Debye-Ang):
   XX=            -72.0052   YY=            -65.2972   ZZ=            -73.2248
   XY=              0.0000   XZ=              0.0000   YZ=              0.0000

 Normal termination of Gaussian 09 at Sun Mar 19 00:45:12 2017.
