 Gaussian 09, Revision D.01,
 Gaussian 09:  EM64L-G09RevD.01 24-Apr-2013

 ------------------------------------------
 #p b3lyp empiricaldispersion=gd3bj cc-pVDZ
 ------------------------------------------

 ---------------------
 benzene dimer 2.60425
 ---------------------
 Symbolic Z-matrix:
 Charge =  0 Multiplicity = 1

                         Standard orientation:
 ---------------------------------------------------------------------
 Center     Atomic      Atomic             Coordinates (Angstroms)
 Number     Number       Type             X           Y           Z
 ---------------------------------------------------------------------
      1          6           0       -1.391500    0.000000   -2.550000
      2          1           0       -2.471500    0.000000   -2.550000
      3          6           0       -0.695750    1.205074   -2.550000
      4          1           0       -1.235750    2.140382   -2.550000
      5          6           0       -0.695750   -1.205074   -2.550000
      6          1           0       -1.235750   -2.140382   -2.550000
      7          6           0        0.695750    1.205074   -2.550000
      8          1           0        1.235750    2.140382   -2.550000
      9          6           0        0.695750   -1.205074   -2.550000
     10          1           0        1.235750   -2.140382   -2.550000
     11          6           0        1.391500    0.000000   -2.550000
     12          1           0        2.471500    0.000000   -2.550000
     13          6           0        0.000000    0.000000    1.158500
     14          6           0        0.000000   -1.205074    1.854250
     15          1           0        0.000000   -2.140382    1.314250
     16          1           0        0.000000    0.000000    0.078500
     17          6           0        0.000000   -1.205074    3.245750
     18          1           0        0.000000   -2.140382    3.785750
     19          6           0        0.000000    0.000000    3.941500
     20          1           0        0.000000    0.000000    5.021500
     21          6           0        0.000000    1.205074    3.245750
     22          1           0        0.000000    2.140382    3.785750
     23          6           0        0.000000    1.205074    1.854250
     24          1           0        0.000000    2.140382    1.314250
 ---------------------------------------------------------------------

 SCF Done:  E(RB3LYP) =  -464.567239477     A.U. after   13 cycles

 The electronic state is 1-A1.
 Alpha  occ. eigenvalues --  -10.19277 -10.19257 -10.19244 -10.19206 -10.19191
 Alpha  occ. eigenvalues --  -10.19174 -10.18247 -10.18216 -10.18179 -10.18089
 Alpha  occ. eigenvalues --  -10.18084 -10.17806  -0.86036  -0.84898  -0.75177
 Alpha  occ. eigenvalues --   -0.75154  -0.74113  -0.74025  -0.60764  -0.60760
 Alpha  occ. eigenvalues --   -0.59718  -0.59667  -0.52801  -0.51745  -0.46550
 Alpha  occ. eigenvalues --   -0.45543  -0.45051  -0.43960  -0.42599  -0.42572
 Alpha  occ. eigenvalues --   -0.41595  -0.41593  -0.37198  -0.36151  -0.34800
 Alpha  occ. eigenvalues --   -0.34784  -0.33783  -0.33484  -0.25925  -0.25892
 Alpha  occ. eigenvalues --   -0.24790  -0.24623
 Alpha virt. eigenvalues --   -0.00974  -0.00955   0.00151   0.00188   0.05253
 Alpha virt. eigenvalues --    0.07092   0.08761   0.09762   0.10984   0.11274
 Alpha virt. eigenvalues --    0.13248   0.13362   0.14387   0.14770   0.14969

 Mulliken charges:
               1
     1  C    0.036169
     2  H   -0.033201
     3  C    0.033511
     4  H   -0.033932
     5  C    0.033511
     6  H   -0.033932
     7  C    0.033511
     8  H   -0.033932
     9  C    0.033511
    10  H   -0.033932
    11  C    0.036169
    12  H   -0.033201
    13  C    0.058442
    14  C    0.024824
    15  H   -0.044575
    16  H   -0.012882
    17  C    0.037613
    18  H   -0.039715
    19  C    0.033500
    20  H   -0.039607
    21  C    0.037613
    22  H   -0.039715
    23  C    0.024824
    24  H   -0.044575
 Sum of Mulliken charges =   0.00000

 Dipole moment (field-independent basis, Debye):
    X=              0.0000    Y=              0.0000    Z=             -0.4829  Tot=              0.4829
 Quadrupole moment (field-independent basis, Debye-Ang):
   XX=            -70.6797   YY=            -64.2666   ZZ=            -71.4791
   XY=              0.0000   XZ=              0.0000   YZ=              0.0000

 Normal termination of Gaussian 09 at Sun Mar 19 00:47:12 2017.
