 Gaussian 09, Revision D.01,
 Gaussian 09:  EM64L-G09RevD.01 24-Apr-2013

 ------------------------------------------
 #p b3lyp empiricaldispersion=gd3bj cc-pVDZ
 ------------------------------------------

 ----------------------------
 benzene dimer 2.495750000000
 ----------------------------
 Symbolic Z-matrix:
 Charge =  0 Multiplicity = 1

                         Standard orientation:
 ---------------------------------------------------------------------
 Center     Atomic      Atomic             Coordinates (Angstroms)
 Number     Number       Type             X           Y           Z
 ---------------------------------------------------------------------
      1          6           0       -1.391500    0.000000   -2.495750
      2          1           0       -2.471500    0.000000   -2.495750
      3          6           0       -0.695750    1.205074   -2.495750
      4          1           0       -1.235750    2.140382   -2.495750
      5          6           0       -0.695750   -1.205074   -2.495750
      6          1           0       -1.235750   -2.140382   -2.495750
      7          6           0        0.695750    1.205074   -2.495750
      8          1           0        1.235750    2.140382   -2.495750
      9          6           0        0.695750   -1.205074   -2.495750
     10          1           0        1.235750   -2.140382   -2.495750
     11          6           0        1.391500    0.000000   -2.495750
     12          1           0        2.471500    0.000000   -2.495750
     13          6           0        0.000000    0.000000    1.104250
     14          6           0        0.000000   -1.205074    1.800000
     15          1           0        0.000000   -2.140382    1.260000
     16          1           0        0.000000    0.000000    0.024250
     17          6           0        0.000000   -1.205074    3.191500
     18          1           0        0.000000   -2.140382    3.731500
     19          6           0        0.000000    0.000000    3.887250
     20          1           0        0.000000    0.000000    4.967250
     21          6           0        0.000000    1.205074    3.191500
     22          1           0        0.000000    2.140382    3.731500
     23          6           0        0.000000    1.205074    1.800000
     24          1           0        0.000000    2.140382    1.260000
 ---------------------------------------------------------------------

 SCF Done:  E(RB3LYP) =  -464.567446471     A.U. after   13 cycles

 The electronic state is 1-A1.
 Alpha  occ. eigenvalues --  -10.19314 -10.19294 -10.19280 -10.19242 -10.19227
 Alpha  occ. eigenvalues --  -10.19211 -10.18204 -10.18174 -10.18136 -10.18035
 Alpha  occ. eigenvalues --  -10.18031 -10.17717  -0.86086  -0.84848  -0.75218
 Alpha  occ. eigenvalues --   -0.75192  -0.74067  -0.73973  -0.60799  -0.60794
 Alpha  occ. eigenvalues --   -0.59671  -0.59619  -0.52839  -0.51704  -0.46579
 Alpha  occ. eigenvalues --   -0.45507  -0.45088  -0.43910  -0.42635  -0.42606
 Alpha  occ. eigenvalues --   -0.41603  -0.41550  -0.37200  -0.36106  -0.34833
 Alpha  occ. eigenvalues --   -0.34816  -0.33737  -0.33375  -0.25995  -0.25943
 Alpha  occ. eigenvalues --   -0.24748  -0.24549
 Alpha virt. eigenvalues --   -0.01030  -0.01002   0.00206   0.00239   0.05226
 Alpha virt. eigenvalues --    0.07163   0.08674   0.09748   0.11049   0.11379
 Alpha virt. eigenvalues --    0.13231   0.13403   0.14493   0.14927   0.14935

 Mulliken charges:
               1
     1  C    0.036148
     2  H   -0.032986
     3  C    0.033311
     4  H   -0.033731
     5  C    0.033311
     6  H   -0.033731
     7  C    0.033311
     8  H   -0.033731
     9  C    0.033311
    10  H   -0.033731
    11  C    0.036148
    12  H   -0.032986
    13  C    0.064772
    14  C    0.022956
    15  H   -0.045999
    16  H   -0.012590
    17  C    0.037983
    18  H   -0.040008
    19  C    0.033173
    20  H   -0.039868
    21  C    0.037983
    22  H   -0.040008
    23  C    0.022956
    24  H   -0.045999
 Sum of Mulliken charges =   0.00000

 Dipole moment (field-independent basis, Debye):
    X=              0.0000    Y=              0.0000    Z=             -0.5242  Tot=              0.5242
 Quadrupole moment (field-independent basis, Debye-Ang):
   XX=            -70.6537   YY=            -64.2924   ZZ=            -71.5187
   XY=              0.0000   XZ=              0.0000   YZ=              0.0000

 Normal termination of Gaussian 09 at Sun Mar 19 01:00:45 2017.
