 Gaussian 09, Revision D.01,
 Gaussian 09:  EM64L-G09RevD.01 24-Apr-2013

 --------------------
 #p m062x may-cc-pVQZ
 --------------------

 ---------------------
 benzene dimer 2.70425
 ---------------------
 Symbolic Z-matrix:
 Charge =  0 Multiplicity = 1

                         Standard orientation:
 ---------------------------------------------------------------------
 Center     Atomic      Atomic             Coordinates (Angstroms)
 Number     Number       Type             X           Y           Z
 ---------------------------------------------------------------------
      1          6           0       -1.391500    0.000000   -2.600000
      2          1           0       -2.471500    0.000000   -2.600000
      3          6           0       -0.695750    1.205074   -2.600000
      4          1           0       -1.235750    2.140382   -2.600000
      5          6           0       -0.695750   -1.205074   -2.600000
      6          1           0       -1.235750   -2.140382   -2.600000
      7          6           0        0.695750    1.205074   -2.600000
      8          1           0        1.235750    2.140382   -2.600000
      9          6           0        0.695750   -1.205074   -2.600000
     10          1           0        1.235750   -2.140382   -2.600000
     11          6           0        1.391500    0.000000   -2.600000
     12          1           0        2.471500    0.000000   -2.600000
     13          6           0        0.000000    0.000000    1.208500
     14          6           0        0.000000   -1.205074    1.904250
     15          1           0        0.000000   -2.140382    1.364250
     16          1           0        0.000000    0.000000    0.128500
     17          6           0        0.000000   -1.205074    3.295750
     18          1           0        0.000000   -2.140382    3.835750
     19          6           0        0.000000    0.000000    3.991500
     20          1           0        0.000000    0.000000    5.071500
     21          6           0        0.000000    1.205074    3.295750
     22          1           0        0.000000    2.140382    3.835750
     23          6           0        0.000000    1.205074    1.904250
     24          1           0        0.000000    2.140382    1.364250
 ---------------------------------------------------------------------

 SCF Done:  E(RM062X) =  -464.478299438     A.U. after   10 cycles

 The electronic state is 1-A1.
 Alpha  occ. eigenvalues --  -10.54738 -10.54705 -10.54694 -10.54622 -10.54609
 Alpha  occ. eigenvalues --  -10.54575 -10.53791 -10.53745 -10.53686 -10.53625
 Alpha  occ. eigenvalues --  -10.53615 -10.53415  -0.96520  -0.95486  -0.84824
 Alpha  occ. eigenvalues --   -0.84802  -0.83844  -0.83765  -0.69118  -0.69113
 Alpha  occ. eigenvalues --   -0.68147  -0.68104  -0.60645  -0.59665  -0.53890
 Alpha  occ. eigenvalues --   -0.52948  -0.51811  -0.50809  -0.49370  -0.49341
 Alpha  occ. eigenvalues --   -0.48465  -0.48432  -0.44474  -0.43555  -0.40771
 Alpha  occ. eigenvalues --   -0.40754  -0.39825  -0.39602  -0.31496  -0.31454
 Alpha  occ. eigenvalues --   -0.30440  -0.30274
 Alpha virt. eigenvalues --   -0.00310   0.00607   0.00795   0.01071   0.01141
 Alpha virt. eigenvalues --    0.01250   0.02178   0.02291   0.02300   0.02311
 Alpha virt. eigenvalues --    0.02924   0.03102   0.03867   0.04176   0.04223

 Mulliken charges:
               1
     1  C   -0.478625
     2  H    0.476009
     3  C   -0.479405
     4  H    0.475233
     5  C   -0.479405
     6  H    0.475233
     7  C   -0.479405
     8  H    0.475233
     9  C   -0.479405
    10  H    0.475233
    11  C   -0.478625
    12  H    0.476009
    13  C   -0.694118
    14  C   -0.391119
    15  H    0.484449
    16  H    0.456302
    17  C   -0.409799
    18  H    0.452437
    19  C   -0.440680
    20  H    0.428474
    21  C   -0.409799
    22  H    0.452437
    23  C   -0.391119
    24  H    0.484449
 Sum of Mulliken charges =   0.00000

 Dipole moment (field-independent basis, Debye):
    X=              0.0000    Y=              0.0000    Z=             -0.4353  Tot=              0.4353
 Quadrupole moment (field-independent basis, Debye-Ang):
   XX=            -71.7424   YY=            -64.1760   ZZ=            -72.3560
   XY=              0.0000   XZ=              0.0000   YZ=              0.0000

 Normal termination of Gaussian 09 at Sun Mar 19 03:17:32 2017.
