 Gaussian 09, Revision D.01,
 Gaussian 09:  EM64L-G09RevD.01 24-Apr-2013

 -------------------------------------------
 #p pbe1pbe empiricaldispersion=gd3bj 6-31g*
 -------------------------------------------

 ---------------------
 benzene dimer 2.10425
 ---------------------
 Symbolic Z-matrix:
 Charge =  0 Multiplicity = 1

                         Standard orientation:
 ---------------------------------------------------------------------
 Center     Atomic      Atomic             Coordinates (Angstroms)
 Number     Number       Type             X           Y           Z
 ---------------------------------------------------------------------
      1          6           0       -1.391500    0.000000   -2.300000
      2          1           0       -2.471500    0.000000   -2.300000
      3          6           0       -0.695750    1.205074   -2.300000
      4          1           0       -1.235750    2.140382   -2.300000
      5          6           0       -0.695750   -1.205074   -2.300000
      6          1           0       -1.235750   -2.140382   -2.300000
      7          6           0        0.695750    1.205074   -2.300000
      8          1           0        1.235750    2.140382   -2.300000
      9          6           0        0.695750   -1.205074   -2.300000
     10          1           0        1.235750   -2.140382   -2.300000
     11          6           0        1.391500    0.000000   -2.300000
     12          1           0        2.471500    0.000000   -2.300000
     13          6           0        0.000000    0.000000    0.908500
     14          6           0        0.000000   -1.205074    1.604250
     15          1           0        0.000000   -2.140382    1.064250
     16          1           0        0.000000    0.000000   -0.171500
     17          6           0        0.000000   -1.205074    2.995750
     18          1           0        0.000000   -2.140382    3.535750
     19          6           0        0.000000    0.000000    3.691500
     20          1           0        0.000000    0.000000    4.771500
     21          6           0        0.000000    1.205074    2.995750
     22          1           0        0.000000    2.140382    3.535750
     23          6           0        0.000000    1.205074    1.604250
     24          1           0        0.000000    2.140382    1.064250
 ---------------------------------------------------------------------

 SCF Done:  E(RPBE1PBE) =  -463.950622157     A.U. after   13 cycles

 The electronic state is 1-A1.
 Alpha  occ. eigenvalues --  -10.24195 -10.24171 -10.24156 -10.24110 -10.24091
 Alpha  occ. eigenvalues --  -10.24070 -10.22573 -10.22538 -10.22487 -10.22324
 Alpha  occ. eigenvalues --  -10.22321 -10.21745  -0.88365  -0.86439  -0.77179
 Alpha  occ. eigenvalues --   -0.77137  -0.75447  -0.75301  -0.62376  -0.62372
 Alpha  occ. eigenvalues --   -0.60699  -0.60644  -0.54374  -0.52683  -0.47899
 Alpha  occ. eigenvalues --   -0.46393  -0.46048  -0.44285  -0.43702  -0.43656
 Alpha  occ. eigenvalues --   -0.42516  -0.42078  -0.37849  -0.36560  -0.35645
 Alpha  occ. eigenvalues --   -0.35618  -0.34009  -0.33230  -0.26761  -0.26632
 Alpha  occ. eigenvalues --   -0.24819  -0.24454
 Alpha virt. eigenvalues --    0.00090   0.00163   0.01997   0.02045   0.09652
 Alpha virt. eigenvalues --    0.11731   0.14940   0.15603   0.16916   0.17061
 Alpha virt. eigenvalues --    0.17601   0.18689   0.19266   0.19519   0.20395

 Mulliken charges:
               1
     1  C   -0.165944
     2  H    0.175138
     3  C   -0.172263
     4  H    0.173550
     5  C   -0.172263
     6  H    0.173550
     7  C   -0.172263
     8  H    0.173550
     9  C   -0.172263
    10  H    0.173550
    11  C   -0.165944
    12  H    0.175138
    13  C   -0.133393
    14  C   -0.179208
    15  H    0.157278
    16  H    0.178474
    17  C   -0.171488
    18  H    0.162381
    19  C   -0.169470
    20  H    0.162925
    21  C   -0.171488
    22  H    0.162381
    23  C   -0.179208
    24  H    0.157278
 Sum of Mulliken charges =   0.00000

 Dipole moment (field-independent basis, Debye):
    X=              0.0000    Y=              0.0000    Z=             -0.7855  Tot=              0.7855
 Quadrupole moment (field-independent basis, Debye-Ang):
   XX=            -69.2229   YY=            -62.0371   ZZ=            -70.3836
   XY=              0.0000   XZ=              0.0000   YZ=              0.0000

 Normal termination of Gaussian 09 at Sun Mar 19 01:33:58 2017.
