 Gaussian 09, Revision D.01,
 Gaussian 09:  EM64L-G09RevD.01 24-Apr-2013

 ------------------------------------------------
 #p pbe1pbe empiricaldispersion=gd3bj may-cc-pVQZ
 ------------------------------------------------

 ---------------
 benzene monomer
 ---------------
 Symbolic Z-matrix:
 Charge =  0 Multiplicity = 1

                         Standard orientation:
 ---------------------------------------------------------------------
 Center     Atomic      Atomic             Coordinates (Angstroms)
 Number     Number       Type             X           Y           Z
 ---------------------------------------------------------------------
      1          6           0        0.000000    1.391500    0.000000
      2          1           0        0.000000    2.471500    0.000000
      3          6           0        1.205074    0.695750    0.000000
      4          1           0        2.140382    1.235750    0.000000
      5          6           0       -1.205074    0.695750    0.000000
      6          1           0       -2.140382    1.235750    0.000000
      7          6           0        1.205074   -0.695750    0.000000
      8          1           0        2.140382   -1.235750    0.000000
      9          6           0       -1.205074   -0.695750    0.000000
     10          1           0       -2.140382   -1.235750    0.000000
     11          6           0        0.000000   -1.391500    0.000000
     12          1           0        0.000000   -2.471500    0.000000
 ---------------------------------------------------------------------

 SCF Done:  E(RPBE1PBE) =  -232.066068214     A.U. after    8 cycles

 The electronic state is 1-A1G.
 Alpha  occ. eigenvalues --  -10.22883 -10.22852 -10.22852 -10.22788 -10.22788
 Alpha  occ. eigenvalues --  -10.22757  -0.88323  -0.77146  -0.77146  -0.62393
 Alpha  occ. eigenvalues --   -0.62393  -0.54347  -0.47745  -0.46379  -0.43658
 Alpha  occ. eigenvalues --   -0.43658  -0.38655  -0.35686  -0.35686  -0.26877
 Alpha  occ. eigenvalues --   -0.26877
 Alpha virt. eigenvalues --   -0.01053  -0.01053   0.00529   0.01867   0.01867
 Alpha virt. eigenvalues --    0.03921   0.03921   0.04518   0.06280   0.06578
 Alpha virt. eigenvalues --    0.06578   0.06762   0.08364   0.10360   0.10360

 Mulliken charges:
               1
     1  C   -0.186383
     2  H    0.186383
     3  C   -0.186383
     4  H    0.186383
     5  C   -0.186383
     6  H    0.186383
     7  C   -0.186383
     8  H    0.186383
     9  C   -0.186383
    10  H    0.186383
    11  C   -0.186383
    12  H    0.186383
 Sum of Mulliken charges =   0.00000

 Dipole moment (field-independent basis, Debye):
    X=              0.0000    Y=              0.0000    Z=              0.0000  Tot=              0.0000
 Quadrupole moment (field-independent basis, Debye-Ang):
   XX=            -31.8035   YY=            -31.8035   ZZ=            -39.7286
   XY=              0.0000   XZ=              0.0000   YZ=              0.0000

 Normal termination of Gaussian 09 at Sun Mar 19 02:43:31 2017.
