 Gaussian 09, Revision D.01,
 Gaussian 09:  EM64L-G09RevD.01 24-Apr-2013

 ---------------
 #p m062x 6-31g*
 ---------------

 ---------------------
 benzene dimer 1.90425
 ---------------------
 Symbolic Z-matrix:
 Charge =  0 Multiplicity = 1

                         Standard orientation:
 ---------------------------------------------------------------------
 Center     Atomic      Atomic             Coordinates (Angstroms)
 Number     Number       Type             X           Y           Z
 ---------------------------------------------------------------------
      1          6           0       -1.391500    0.000000   -2.200000
      2          1           0       -2.471500    0.000000   -2.200000
      3          6           0       -0.695750    1.205074   -2.200000
      4          1           0       -1.235750    2.140382   -2.200000
      5          6           0       -0.695750   -1.205074   -2.200000
      6          1           0       -1.235750   -2.140382   -2.200000
      7          6           0        0.695750    1.205074   -2.200000
      8          1           0        1.235750    2.140382   -2.200000
      9          6           0        0.695750   -1.205074   -2.200000
     10          1           0        1.235750   -2.140382   -2.200000
     11          6           0        1.391500    0.000000   -2.200000
     12          1           0        2.471500    0.000000   -2.200000
     13          6           0        0.000000    0.000000    0.808500
     14          6           0        0.000000   -1.205074    1.504250
     15          1           0        0.000000   -2.140382    0.964250
     16          1           0        0.000000    0.000000   -0.271500
     17          6           0        0.000000   -1.205074    2.895750
     18          1           0        0.000000   -2.140382    3.435750
     19          6           0        0.000000    0.000000    3.591500
     20          1           0        0.000000    0.000000    4.671500
     21          6           0        0.000000    1.205074    2.895750
     22          1           0        0.000000    2.140382    3.435750
     23          6           0        0.000000    1.205074    1.504250
     24          1           0        0.000000    2.140382    0.964250
 ---------------------------------------------------------------------

 SCF Done:  E(RM062X) =  -464.271979745     A.U. after   14 cycles

 The electronic state is 1-A1.
 Alpha  occ. eigenvalues --  -10.55440 -10.55411 -10.55394 -10.55333 -10.55312
 Alpha  occ. eigenvalues --  -10.55284 -10.53668 -10.53628 -10.53557 -10.53384
 Alpha  occ. eigenvalues --  -10.53381 -10.52653  -0.96332  -0.94089  -0.84533
 Alpha  occ. eigenvalues --   -0.84480  -0.82588  -0.82427  -0.68780  -0.68776
 Alpha  occ. eigenvalues --   -0.66929  -0.66913  -0.60452  -0.58586  -0.53703
 Alpha  occ. eigenvalues --   -0.52149  -0.51206  -0.49273  -0.49120  -0.49070
 Alpha  occ. eigenvalues --   -0.48204  -0.47314  -0.42856  -0.42012  -0.40439
 Alpha  occ. eigenvalues --   -0.40413  -0.38624  -0.37565  -0.31254  -0.30961
 Alpha  occ. eigenvalues --   -0.28920  -0.28349
 Alpha virt. eigenvalues --    0.02873   0.03037   0.05218   0.05251   0.12907
 Alpha virt. eigenvalues --    0.15345   0.18114   0.19078   0.20717   0.20955
 Alpha virt. eigenvalues --    0.21015   0.22632   0.23040   0.23149   0.23842

 Mulliken charges:
               1
     1  C   -0.157600
     2  H    0.170307
     3  C   -0.166488
     4  H    0.168427
     5  C   -0.166488
     6  H    0.168427
     7  C   -0.166488
     8  H    0.168427
     9  C   -0.166488
    10  H    0.168427
    11  C   -0.157600
    12  H    0.170307
    13  C   -0.106995
    14  C   -0.168884
    15  H    0.144725
    16  H    0.150491
    17  C   -0.165182
    18  H    0.154899
    19  C   -0.163426
    20  H    0.155644
    21  C   -0.165182
    22  H    0.154899
    23  C   -0.168884
    24  H    0.144725
 Sum of Mulliken charges =   0.00000

 Dipole moment (field-independent basis, Debye):
    X=              0.0000    Y=              0.0000    Z=             -0.8480  Tot=              0.8480
 Quadrupole moment (field-independent basis, Debye-Ang):
   XX=            -69.6318   YY=            -62.7558   ZZ=            -70.9474
   XY=              0.0000   XZ=              0.0000   YZ=              0.0000

 Normal termination of Gaussian 09 at Sun Mar 19 00:40:11 2017.
