 Gaussian 09, Revision D.01,
 Gaussian 09:  EM64L-G09RevD.01 24-Apr-2013

 --------------------
 #p m062x may-cc-pVQZ
 --------------------

 ---------------------
 benzene dimer 2.30425
 ---------------------
 Symbolic Z-matrix:
 Charge =  0 Multiplicity = 1

                         Standard orientation:
 ---------------------------------------------------------------------
 Center     Atomic      Atomic             Coordinates (Angstroms)
 Number     Number       Type             X           Y           Z
 ---------------------------------------------------------------------
      1          6           0       -1.391500    0.000000   -2.400000
      2          1           0       -2.471500    0.000000   -2.400000
      3          6           0       -0.695750    1.205074   -2.400000
      4          1           0       -1.235750    2.140382   -2.400000
      5          6           0       -0.695750   -1.205074   -2.400000
      6          1           0       -1.235750   -2.140382   -2.400000
      7          6           0        0.695750    1.205074   -2.400000
      8          1           0        1.235750    2.140382   -2.400000
      9          6           0        0.695750   -1.205074   -2.400000
     10          1           0        1.235750   -2.140382   -2.400000
     11          6           0        1.391500    0.000000   -2.400000
     12          1           0        2.471500    0.000000   -2.400000
     13          6           0        0.000000    0.000000    1.008500
     14          6           0        0.000000   -1.205074    1.704250
     15          1           0        0.000000   -2.140382    1.164250
     16          1           0        0.000000    0.000000   -0.071500
     17          6           0        0.000000   -1.205074    3.095750
     18          1           0        0.000000   -2.140382    3.635750
     19          6           0        0.000000    0.000000    3.791500
     20          1           0        0.000000    0.000000    4.871500
     21          6           0        0.000000    1.205074    3.095750
     22          1           0        0.000000    2.140382    3.635750
     23          6           0        0.000000    1.205074    1.704250
     24          1           0        0.000000    2.140382    1.164250
 ---------------------------------------------------------------------

 SCF Done:  E(RM062X) =  -464.478576075     A.U. after   11 cycles

 The electronic state is 1-A1.
 Alpha  occ. eigenvalues --  -10.54852 -10.54820 -10.54806 -10.54736 -10.54721
 Alpha  occ. eigenvalues --  -10.54688 -10.53639 -10.53594 -10.53527 -10.53439
 Alpha  occ. eigenvalues --  -10.53432 -10.53094  -0.96695  -0.95302  -0.84961
 Alpha  occ. eigenvalues --   -0.84929  -0.83679  -0.83572  -0.69232  -0.69226
 Alpha  occ. eigenvalues --   -0.67976  -0.67935  -0.60782  -0.59526  -0.53987
 Alpha  occ. eigenvalues --   -0.52835  -0.51929  -0.50630  -0.49497  -0.49457
 Alpha  occ. eigenvalues --   -0.48606  -0.48280  -0.44307  -0.43392  -0.40882
 Alpha  occ. eigenvalues --   -0.40860  -0.39657  -0.39196  -0.31785  -0.31641
 Alpha  occ. eigenvalues --   -0.30288  -0.29967
 Alpha virt. eigenvalues --   -0.00328   0.00626   0.00841   0.00843   0.01111
 Alpha virt. eigenvalues --    0.01146   0.02260   0.02354   0.02462   0.02480
 Alpha virt. eigenvalues --    0.02880   0.03158   0.03908   0.04285   0.04396

 Mulliken charges:
               1
     1  C   -0.441551
     2  H    0.487574
     3  C   -0.504566
     4  H    0.481002
     5  C   -0.504566
     6  H    0.481002
     7  C   -0.504566
     8  H    0.481002
     9  C   -0.504566
    10  H    0.481002
    11  C   -0.441551
    12  H    0.487574
    13  C   -0.468172
    14  C   -0.448714
    15  H    0.496182
    16  H    0.309812
    17  C   -0.393680
    18  H    0.453975
    19  C   -0.483860
    20  H    0.428906
    21  C   -0.393680
    22  H    0.453975
    23  C   -0.448714
    24  H    0.496182
 Sum of Mulliken charges =   0.00000

 Dipole moment (field-independent basis, Debye):
    X=              0.0000    Y=              0.0000    Z=             -0.5785  Tot=              0.5785
 Quadrupole moment (field-independent basis, Debye-Ang):
   XX=            -71.6217   YY=            -64.2328   ZZ=            -72.5149
   XY=              0.0000   XZ=              0.0000   YZ=              0.0000

 Normal termination of Gaussian 09 at Sun Mar 19 03:32:27 2017.
