 Gaussian 09, Revision D.01,
 Gaussian 09:  EM64L-G09RevD.01 24-Apr-2013

 ------------------------------------------------
 #p pbe1pbe empiricaldispersion=gd3bj may-cc-pVQZ
 ------------------------------------------------

 ---------------------
 benzene dimer 2.10425
 ---------------------
 Symbolic Z-matrix:
 Charge =  0 Multiplicity = 1

                         Standard orientation:
 ---------------------------------------------------------------------
 Center     Atomic      Atomic             Coordinates (Angstroms)
 Number     Number       Type             X           Y           Z
 ---------------------------------------------------------------------
      1          6           0       -1.391500    0.000000   -2.300000
      2          1           0       -2.471500    0.000000   -2.300000
      3          6           0       -0.695750    1.205074   -2.300000
      4          1           0       -1.235750    2.140382   -2.300000
      5          6           0       -0.695750   -1.205074   -2.300000
      6          1           0       -1.235750   -2.140382   -2.300000
      7          6           0        0.695750    1.205074   -2.300000
      8          1           0        1.235750    2.140382   -2.300000
      9          6           0        0.695750   -1.205074   -2.300000
     10          1           0        1.235750   -2.140382   -2.300000
     11          6           0        1.391500    0.000000   -2.300000
     12          1           0        2.471500    0.000000   -2.300000
     13          6           0        0.000000    0.000000    0.908500
     14          6           0        0.000000   -1.205074    1.604250
     15          1           0        0.000000   -2.140382    1.064250
     16          1           0        0.000000    0.000000   -0.171500
     17          6           0        0.000000   -1.205074    2.995750
     18          1           0        0.000000   -2.140382    3.535750
     19          6           0        0.000000    0.000000    3.691500
     20          1           0        0.000000    0.000000    4.771500
     21          6           0        0.000000    1.205074    2.995750
     22          1           0        0.000000    2.140382    3.535750
     23          6           0        0.000000    1.205074    1.604250
     24          1           0        0.000000    2.140382    1.064250
 ---------------------------------------------------------------------

 SCF Done:  E(RPBE1PBE) =  -464.134914097     A.U. after   10 cycles

 The electronic state is 1-A1.
 Alpha  occ. eigenvalues --  -10.23454 -10.23428 -10.23418 -10.23363 -10.23352
 Alpha  occ. eigenvalues --  -10.23326 -10.22041 -10.22010 -10.21947 -10.21820
 Alpha  occ. eigenvalues --  -10.21816 -10.21341  -0.89061  -0.87369  -0.77781
 Alpha  occ. eigenvalues --   -0.77743  -0.76262  -0.76139  -0.62954  -0.62950
 Alpha  occ. eigenvalues --   -0.61483  -0.61447  -0.54955  -0.53478  -0.48243
 Alpha  occ. eigenvalues --   -0.46958  -0.46949  -0.45428  -0.44246  -0.44203
 Alpha  occ. eigenvalues --   -0.43322  -0.42818  -0.38779  -0.37768  -0.36237
 Alpha  occ. eigenvalues --   -0.36210  -0.34803  -0.34088  -0.27825  -0.27627
 Alpha  occ. eigenvalues --   -0.26041  -0.25633
 Alpha virt. eigenvalues --   -0.01916  -0.01685  -0.00241  -0.00059   0.00032
 Alpha virt. eigenvalues --    0.01139   0.01168   0.01684   0.02875   0.03034
 Alpha virt. eigenvalues --    0.03512   0.03684   0.04612   0.04911   0.05287

 Mulliken charges:
               1
     1  C   -0.173296
     2  H    0.155421
     3  C   -0.135421
     4  H    0.156446
     5  C   -0.135421
     6  H    0.156446
     7  C   -0.135421
     8  H    0.156446
     9  C   -0.135421
    10  H    0.156446
    11  C   -0.173296
    12  H    0.155421
    13  C   -0.538233
    14  C   -0.115988
    15  H    0.209741
    16  H    0.165005
    17  C   -0.134384
    18  H    0.181870
    19  C   -0.133783
    20  H    0.176182
    21  C   -0.134384
    22  H    0.181870
    23  C   -0.115988
    24  H    0.209741
 Sum of Mulliken charges =   0.00000

 Dipole moment (field-independent basis, Debye):
    X=              0.0000    Y=              0.0000    Z=             -0.6979  Tot=              0.6979
 Quadrupole moment (field-independent basis, Debye-Ang):
   XX=            -71.0290   YY=            -63.8323   ZZ=            -72.4752
   XY=              0.0000   XZ=              0.0000   YZ=              0.0000

 Normal termination of Gaussian 09 at Sun Mar 19 04:18:57 2017.
