 Gaussian 09, Revision D.01,
 Gaussian 09:  EM64L-G09RevD.01 24-Apr-2013

 -----------------------------------------
 #p b3lyp empiricaldispersion=gd3bj 6-31g*
 -----------------------------------------

 ---------------------
 benzene dimer 3.10425
 ---------------------
 Symbolic Z-matrix:
 Charge =  0 Multiplicity = 1

                         Standard orientation:
 ---------------------------------------------------------------------
 Center     Atomic      Atomic             Coordinates (Angstroms)
 Number     Number       Type             X           Y           Z
 ---------------------------------------------------------------------
      1          6           0       -1.391500    0.000000   -2.800000
      2          1           0       -2.471500    0.000000   -2.800000
      3          6           0       -0.695750    1.205074   -2.800000
      4          1           0       -1.235750    2.140382   -2.800000
      5          6           0       -0.695750   -1.205074   -2.800000
      6          1           0       -1.235750   -2.140382   -2.800000
      7          6           0        0.695750    1.205074   -2.800000
      8          1           0        1.235750    2.140382   -2.800000
      9          6           0        0.695750   -1.205074   -2.800000
     10          1           0        1.235750   -2.140382   -2.800000
     11          6           0        1.391500    0.000000   -2.800000
     12          1           0        2.471500    0.000000   -2.800000
     13          6           0        0.000000    0.000000    1.408500
     14          6           0        0.000000   -1.205074    2.104250
     15          1           0        0.000000   -2.140382    1.564250
     16          1           0        0.000000    0.000000    0.328500
     17          6           0        0.000000   -1.205074    3.495750
     18          1           0        0.000000   -2.140382    4.035750
     19          6           0        0.000000    0.000000    4.191500
     20          1           0        0.000000    0.000000    5.271500
     21          6           0        0.000000    1.205074    3.495750
     22          1           0        0.000000    2.140382    4.035750
     23          6           0        0.000000    1.205074    2.104250
     24          1           0        0.000000    2.140382    1.564250
 ---------------------------------------------------------------------

 SCF Done:  E(RB3LYP) =  -464.538279147     A.U. after   13 cycles

 The electronic state is 1-A1.
 Alpha  occ. eigenvalues --  -10.18863 -10.18839 -10.18831 -10.18782 -10.18773
 Alpha  occ. eigenvalues --  -10.18749 -10.18086 -10.18050 -10.18011 -10.17956
 Alpha  occ. eigenvalues --  -10.17950 -10.17768  -0.85211  -0.84367  -0.74464
 Alpha  occ. eigenvalues --   -0.74449  -0.73660  -0.73595  -0.60185  -0.60181
 Alpha  occ. eigenvalues --   -0.59388  -0.59343  -0.52392  -0.51578  -0.46279
 Alpha  occ. eigenvalues --   -0.45483  -0.44241  -0.43411  -0.42142  -0.42123
 Alpha  occ. eigenvalues --   -0.41372  -0.41281  -0.36460  -0.35596  -0.34351
 Alpha  occ. eigenvalues --   -0.34339  -0.33572  -0.33424  -0.25028  -0.25015
 Alpha  occ. eigenvalues --   -0.24213  -0.24138
 Alpha virt. eigenvalues --    0.00153   0.00163   0.00955   0.01005   0.09027
 Alpha virt. eigenvalues --    0.09787   0.14353   0.14458   0.15078   0.15132
 Alpha virt. eigenvalues --    0.16351   0.17159   0.18184   0.18191   0.18810

 Mulliken charges:
               1
     1  C   -0.127491
     2  H    0.130696
     3  C   -0.129491
     4  H    0.129761
     5  C   -0.129491
     6  H    0.129761
     7  C   -0.129491
     8  H    0.129761
     9  C   -0.129491
    10  H    0.129761
    11  C   -0.127491
    12  H    0.130696
    13  C   -0.138697
    14  C   -0.130135
    15  H    0.125551
    16  H    0.150323
    17  C   -0.127989
    18  H    0.124728
    19  C   -0.128428
    20  H    0.124999
    21  C   -0.127989
    22  H    0.124728
    23  C   -0.130135
    24  H    0.125551
 Sum of Mulliken charges =   0.00000

 Dipole moment (field-independent basis, Debye):
    X=              0.0000    Y=              0.0000    Z=             -0.3548  Tot=              0.3548
 Quadrupole moment (field-independent basis, Debye-Ang):
   XX=            -69.7297   YY=            -62.9058   ZZ=            -70.2817
   XY=              0.0000   XZ=              0.0000   YZ=              0.0000

 Normal termination of Gaussian 09 at Sun Mar 19 00:49:34 2017.
