 Gaussian 09, Revision D.01,
 Gaussian 09:  EM64L-G09RevD.01 24-Apr-2013

 -------------------------------------------
 #p pbe1pbe empiricaldispersion=gd3bj 6-31g*
 -------------------------------------------

 ---------------------
 benzene dimer 2.70425
 ---------------------
 Symbolic Z-matrix:
 Charge =  0 Multiplicity = 1

                         Standard orientation:
 ---------------------------------------------------------------------
 Center     Atomic      Atomic             Coordinates (Angstroms)
 Number     Number       Type             X           Y           Z
 ---------------------------------------------------------------------
      1          6           0       -1.391500    0.000000   -2.600000
      2          1           0       -2.471500    0.000000   -2.600000
      3          6           0       -0.695750    1.205074   -2.600000
      4          1           0       -1.235750    2.140382   -2.600000
      5          6           0       -0.695750   -1.205074   -2.600000
      6          1           0       -1.235750   -2.140382   -2.600000
      7          6           0        0.695750    1.205074   -2.600000
      8          1           0        1.235750    2.140382   -2.600000
      9          6           0        0.695750   -1.205074   -2.600000
     10          1           0        1.235750   -2.140382   -2.600000
     11          6           0        1.391500    0.000000   -2.600000
     12          1           0        2.471500    0.000000   -2.600000
     13          6           0        0.000000    0.000000    1.208500
     14          6           0        0.000000   -1.205074    1.904250
     15          1           0        0.000000   -2.140382    1.364250
     16          1           0        0.000000    0.000000    0.128500
     17          6           0        0.000000   -1.205074    3.295750
     18          1           0        0.000000   -2.140382    3.835750
     19          6           0        0.000000    0.000000    3.991500
     20          1           0        0.000000    0.000000    5.071500
     21          6           0        0.000000    1.205074    3.295750
     22          1           0        0.000000    2.140382    3.835750
     23          6           0        0.000000    1.205074    1.904250
     24          1           0        0.000000    2.140382    1.364250
 ---------------------------------------------------------------------

 SCF Done:  E(RPBE1PBE) =  -463.951666789     A.U. after   13 cycles

 The electronic state is 1-A1.
 Alpha  occ. eigenvalues --  -10.23949 -10.23924 -10.23912 -10.23863 -10.23849
 Alpha  occ. eigenvalues --  -10.23826 -10.22884 -10.22845 -10.22801 -10.22715
 Alpha  occ. eigenvalues --  -10.22709 -10.22427  -0.87985  -0.86806  -0.76890
 Alpha  occ. eigenvalues --   -0.76866  -0.75780  -0.75686  -0.62138  -0.62133
 Alpha  occ. eigenvalues --   -0.61041  -0.60982  -0.54087  -0.52972  -0.47700
 Alpha  occ. eigenvalues --   -0.46626  -0.45792  -0.44648  -0.43442  -0.43413
 Alpha  occ. eigenvalues --   -0.42387  -0.42338  -0.38015  -0.36886  -0.35411
 Alpha  occ. eigenvalues --   -0.35393  -0.34343  -0.34077  -0.26269  -0.26268
 Alpha  occ. eigenvalues --   -0.25127  -0.24991
 Alpha virt. eigenvalues --    0.00472   0.00488   0.01605   0.01666   0.09978
 Alpha virt. eigenvalues --    0.11098   0.15496   0.15744   0.16612   0.16815
 Alpha virt. eigenvalues --    0.17209   0.18326   0.19423   0.19432   0.20210

 Mulliken charges:
               1
     1  C   -0.167852
     2  H    0.172688
     3  C   -0.171345
     4  H    0.171445
     5  C   -0.171345
     6  H    0.171445
     7  C   -0.171345
     8  H    0.171445
     9  C   -0.171345
    10  H    0.171445
    11  C   -0.167852
    12  H    0.172688
    13  C   -0.171311
    14  C   -0.173151
    15  H    0.163862
    16  H    0.194438
    17  C   -0.169613
    18  H    0.164538
    19  C   -0.169356
    20  H    0.164884
    21  C   -0.169613
    22  H    0.164538
    23  C   -0.173151
    24  H    0.163862
 Sum of Mulliken charges =   0.00000

 Dipole moment (field-independent basis, Debye):
    X=              0.0000    Y=              0.0000    Z=             -0.4864  Tot=              0.4864
 Quadrupole moment (field-independent basis, Debye-Ang):
   XX=            -69.4232   YY=            -61.8935   ZZ=            -70.1663
   XY=              0.0000   XZ=              0.0000   YZ=              0.0000

 Normal termination of Gaussian 09 at Sun Mar 19 01:34:46 2017.
