 Gaussian 09, Revision D.01,
 Gaussian 09:  EM64L-G09RevD.01 24-Apr-2013

 ------------------------------------------
 #p b3lyp empiricaldispersion=gd3bj cc-pVTZ
 ------------------------------------------

 ---------------------
 benzene dimer 2.60425
 ---------------------
 Symbolic Z-matrix:
 Charge =  0 Multiplicity = 1

                         Standard orientation:
 ---------------------------------------------------------------------
 Center     Atomic      Atomic             Coordinates (Angstroms)
 Number     Number       Type             X           Y           Z
 ---------------------------------------------------------------------
      1          6           0       -1.391500    0.000000   -2.550000
      2          1           0       -2.471500    0.000000   -2.550000
      3          6           0       -0.695750    1.205074   -2.550000
      4          1           0       -1.235750    2.140382   -2.550000
      5          6           0       -0.695750   -1.205074   -2.550000
      6          1           0       -1.235750   -2.140382   -2.550000
      7          6           0        0.695750    1.205074   -2.550000
      8          1           0        1.235750    2.140382   -2.550000
      9          6           0        0.695750   -1.205074   -2.550000
     10          1           0        1.235750   -2.140382   -2.550000
     11          6           0        1.391500    0.000000   -2.550000
     12          1           0        2.471500    0.000000   -2.550000
     13          6           0        0.000000    0.000000    1.158500
     14          6           0        0.000000   -1.205074    1.854250
     15          1           0        0.000000   -2.140382    1.314250
     16          1           0        0.000000    0.000000    0.078500
     17          6           0        0.000000   -1.205074    3.245750
     18          1           0        0.000000   -2.140382    3.785750
     19          6           0        0.000000    0.000000    3.941500
     20          1           0        0.000000    0.000000    5.021500
     21          6           0        0.000000    1.205074    3.245750
     22          1           0        0.000000    2.140382    3.785750
     23          6           0        0.000000    1.205074    1.854250
     24          1           0        0.000000    2.140382    1.314250
 ---------------------------------------------------------------------

 SCF Done:  E(RB3LYP) =  -464.709340316     A.U. after   12 cycles

 The electronic state is 1-A1.
 Alpha  occ. eigenvalues --  -10.18270 -10.18248 -10.18238 -10.18189 -10.18176
 Alpha  occ. eigenvalues --  -10.18156 -10.17263 -10.17229 -10.17184 -10.17105
 Alpha  occ. eigenvalues --  -10.17099 -10.16846  -0.86219  -0.85097  -0.75343
 Alpha  occ. eigenvalues --   -0.75320  -0.74288  -0.74205  -0.60998  -0.60993
 Alpha  occ. eigenvalues --   -0.59960  -0.59915  -0.53198  -0.52153  -0.46802
 Alpha  occ. eigenvalues --   -0.45805  -0.45456  -0.44379  -0.42939  -0.42911
 Alpha  occ. eigenvalues --   -0.41953  -0.41937  -0.37616  -0.36580  -0.35185
 Alpha  occ. eigenvalues --   -0.35167  -0.34176  -0.33887  -0.26371  -0.26325
 Alpha  occ. eigenvalues --   -0.25234  -0.25057
 Alpha virt. eigenvalues --   -0.01745  -0.01694  -0.00567  -0.00567   0.03161
 Alpha virt. eigenvalues --    0.05067   0.05766   0.06919   0.08142   0.08406
 Alpha virt. eigenvalues --    0.09975   0.10193   0.11285   0.11629   0.12585

 Mulliken charges:
               1
     1  C   -0.100192
     2  H    0.107021
     3  C   -0.110387
     4  H    0.107938
     5  C   -0.110387
     6  H    0.107938
     7  C   -0.110387
     8  H    0.107938
     9  C   -0.110387
    10  H    0.107938
    11  C   -0.100192
    12  H    0.107021
    13  C   -0.062624
    14  C   -0.131256
    15  H    0.102584
    16  H    0.123405
    17  C   -0.101419
    18  H    0.102955
    19  C   -0.113597
    20  H    0.103224
    21  C   -0.101419
    22  H    0.102955
    23  C   -0.131256
    24  H    0.102584
 Sum of Mulliken charges =   0.00000

 Dipole moment (field-independent basis, Debye):
    X=              0.0000    Y=              0.0000    Z=             -0.4571  Tot=              0.4571
 Quadrupole moment (field-independent basis, Debye-Ang):
   XX=            -71.4175   YY=            -64.4343   ZZ=            -72.3258
   XY=              0.0000   XZ=              0.0000   YZ=              0.0000

 Normal termination of Gaussian 09 at Sun Mar 19 00:31:45 2017.
