 Gaussian 09, Revision D.01,
 Gaussian 09:  EM64L-G09RevD.01 24-Apr-2013

 -------------
 #p mp2 6-31g*
 -------------

 ----------------------------
 benzene dimer 2.495750000000
 ----------------------------
 Symbolic Z-matrix:
 Charge =  0 Multiplicity = 1

                         Standard orientation:
 ---------------------------------------------------------------------
 Center     Atomic      Atomic             Coordinates (Angstroms)
 Number     Number       Type             X           Y           Z
 ---------------------------------------------------------------------
      1          6           0       -1.391500    0.000000   -2.495750
      2          1           0       -2.471500    0.000000   -2.495750
      3          6           0       -0.695750    1.205074   -2.495750
      4          1           0       -1.235750    2.140382   -2.495750
      5          6           0       -0.695750   -1.205074   -2.495750
      6          1           0       -1.235750   -2.140382   -2.495750
      7          6           0        0.695750    1.205074   -2.495750
      8          1           0        1.235750    2.140382   -2.495750
      9          6           0        0.695750   -1.205074   -2.495750
     10          1           0        1.235750   -2.140382   -2.495750
     11          6           0        1.391500    0.000000   -2.495750
     12          1           0        2.471500    0.000000   -2.495750
     13          6           0        0.000000    0.000000    1.104250
     14          6           0        0.000000   -1.205074    1.800000
     15          1           0        0.000000   -2.140382    1.260000
     16          1           0        0.000000    0.000000    0.024250
     17          6           0        0.000000   -1.205074    3.191500
     18          1           0        0.000000   -2.140382    3.731500
     19          6           0        0.000000    0.000000    3.887250
     20          1           0        0.000000    0.000000    4.967250
     21          6           0        0.000000    1.205074    3.191500
     22          1           0        0.000000    2.140382    3.731500
     23          6           0        0.000000    1.205074    1.800000
     24          1           0        0.000000    2.140382    1.260000
 ---------------------------------------------------------------------

 SCF Done:  E(RHF) =  -461.405515800     A.U. after   12 cycles
 E2 =    -0.1514280044D+01 EUMP2 =    -0.46291979584382D+03

 The electronic state is 1-A1.
 Alpha  occ. eigenvalues --  -11.23692 -11.23643 -11.23626 -11.23521 -11.23503
 Alpha  occ. eigenvalues --  -11.23453 -11.22424 -11.22367 -11.22256 -11.22147
 Alpha  occ. eigenvalues --  -11.22134 -11.21765  -1.15093  -1.13644  -1.01494
 Alpha  occ. eigenvalues --   -1.01461  -1.00148  -1.00037  -0.82355  -0.82351
 Alpha  occ. eigenvalues --   -0.81032  -0.80988  -0.70978  -0.69645  -0.64404
 Alpha  occ. eigenvalues --   -0.63146  -0.61728  -0.60353  -0.58812  -0.58776
 Alpha  occ. eigenvalues --   -0.57556  -0.57533  -0.50374  -0.49408  -0.49386
 Alpha  occ. eigenvalues --   -0.48789  -0.48121  -0.47435  -0.33674  -0.33614
 Alpha  occ. eigenvalues --   -0.32257  -0.31952
 Alpha virt. eigenvalues --    0.14187   0.14229   0.15635   0.15695   0.22990
 Alpha virt. eigenvalues --    0.24560   0.28595   0.29064   0.30192   0.30707
 Alpha virt. eigenvalues --    0.32862   0.32948   0.33375   0.33799   0.33994

 Mulliken charges:
               1
     1  C   -0.199473
     2  H    0.204902
     3  C   -0.204204
     4  H    0.203476
     5  C   -0.204204
     6  H    0.203476
     7  C   -0.204204
     8  H    0.203476
     9  C   -0.204204
    10  H    0.203476
    11  C   -0.199473
    12  H    0.204902
    13  C   -0.207493
    14  C   -0.208805
    15  H    0.194526
    16  H    0.243432
    17  C   -0.199124
    18  H    0.195145
    19  C   -0.202845
    20  H    0.195474
    21  C   -0.199124
    22  H    0.195145
    23  C   -0.208805
    24  H    0.194526
 Sum of Mulliken charges =   0.00000

 Dipole moment (field-independent basis, Debye):
    X=              0.0000    Y=              0.0000    Z=             -0.5662  Tot=              0.5662
 Quadrupole moment (field-independent basis, Debye-Ang):
   XX=            -70.9309   YY=            -62.9583   ZZ=            -71.9673
   XY=              0.0000   XZ=              0.0000   YZ=              0.0000

 Normal termination of Gaussian 09 at Sun Mar 19 01:03:15 2017.
