 Gaussian 09, Revision D.01,
 Gaussian 09:  EM64L-G09RevD.01 24-Apr-2013

 --------------------
 #p m062x may-cc-pVQZ
 --------------------

 ---------------------
 benzene dimer 4.90425
 ---------------------
 Symbolic Z-matrix:
 Charge =  0 Multiplicity = 1

                         Standard orientation:
 ---------------------------------------------------------------------
 Center     Atomic      Atomic             Coordinates (Angstroms)
 Number     Number       Type             X           Y           Z
 ---------------------------------------------------------------------
      1          6           0       -1.391500    0.000000   -3.700000
      2          1           0       -2.471500    0.000000   -3.700000
      3          6           0       -0.695750    1.205074   -3.700000
      4          1           0       -1.235750    2.140382   -3.700000
      5          6           0       -0.695750   -1.205074   -3.700000
      6          1           0       -1.235750   -2.140382   -3.700000
      7          6           0        0.695750    1.205074   -3.700000
      8          1           0        1.235750    2.140382   -3.700000
      9          6           0        0.695750   -1.205074   -3.700000
     10          1           0        1.235750   -2.140382   -3.700000
     11          6           0        1.391500    0.000000   -3.700000
     12          1           0        2.471500    0.000000   -3.700000
     13          6           0        0.000000    0.000000    2.308500
     14          6           0        0.000000   -1.205074    3.004250
     15          1           0        0.000000   -2.140382    2.464250
     16          1           0        0.000000    0.000000    1.228500
     17          6           0        0.000000   -1.205074    4.395750
     18          1           0        0.000000   -2.140382    4.935750
     19          6           0        0.000000    0.000000    5.091500
     20          1           0        0.000000    0.000000    6.171500
     21          6           0        0.000000    1.205074    4.395750
     22          1           0        0.000000    2.140382    4.935750
     23          6           0        0.000000    1.205074    3.004250
     24          1           0        0.000000    2.140382    2.464250
 ---------------------------------------------------------------------

 SCF Done:  E(RM062X) =  -464.475642802     A.U. after   19 cycles

 The electronic state is 1-A1.
 Alpha  occ. eigenvalues --  -10.54454 -10.54417 -10.54415 -10.54334 -10.54331
 Alpha  occ. eigenvalues --  -10.54293 -10.54133 -10.54093 -10.54072 -10.54005
 Alpha  occ. eigenvalues --  -10.54004 -10.53944  -0.96209  -0.95877  -0.84534
 Alpha  occ. eigenvalues --   -0.84529  -0.84209  -0.84191  -0.68855  -0.68853
 Alpha  occ. eigenvalues --   -0.68529  -0.68518  -0.60383  -0.60053  -0.53658
 Alpha  occ. eigenvalues --   -0.53329  -0.51536  -0.51205  -0.49100  -0.49093
 Alpha  occ. eigenvalues --   -0.48783  -0.48749  -0.44265  -0.43930  -0.40512
 Alpha  occ. eigenvalues --   -0.40508  -0.40192  -0.40168  -0.31113  -0.31107
 Alpha  occ. eigenvalues --   -0.30787  -0.30767
 Alpha virt. eigenvalues --   -0.00471   0.00654   0.00766   0.01107   0.01531
 Alpha virt. eigenvalues --    0.01558   0.01841   0.01875   0.01912   0.01934
 Alpha virt. eigenvalues --    0.03035   0.03120   0.03434   0.03555   0.03697

 Mulliken charges:
               1
     1  C   -0.442429
     2  H    0.444849
     3  C   -0.452343
     4  H    0.450759
     5  C   -0.452343
     6  H    0.450759
     7  C   -0.452343
     8  H    0.450759
     9  C   -0.452343
    10  H    0.450759
    11  C   -0.442429
    12  H    0.444849
    13  C   -0.423528
    14  C   -0.466860
    15  H    0.446283
    16  H    0.446558
    17  C   -0.437606
    18  H    0.445841
    19  C   -0.436472
    20  H    0.439624
    21  C   -0.437606
    22  H    0.445841
    23  C   -0.466860
    24  H    0.446283
 Sum of Mulliken charges =   0.00000

 Dipole moment (field-independent basis, Debye):
    X=              0.0000    Y=              0.0000    Z=             -0.1149  Tot=              0.1149
 Quadrupole moment (field-independent basis, Debye-Ang):
   XX=            -71.9557   YY=            -64.0709   ZZ=            -72.2618
   XY=              0.0000   XZ=              0.0000   YZ=              0.0000

 1\1\GINC-HOLY2A14108\SP\RM062X\May-CC-pVQZ\C12H12\ROOT\19-Mar-2017\0\\
 #p m062x may-cc-pVQZ\\benzene dimer 4.90425\\0,1\C,0,1.3915,0.,4.90425
 \H,0,2.4715,0.,4.90425\C,0,0.69575,1.2050743494,4.90425\H,0,1.23575,2.
 1403817855,4.90425\C,0,0.69575,-1.2050743494,4.90425\H,0,1.23575,-2.14
 03817855,4.90425\C,0,-0.69575,1.2050743494,4.90425\H,0,-1.23575,2.1403
 817855,4.90425\C,0,-0.69575,-1.2050743494,4.90425\H,0,-1.23575,-2.1403
 817855,4.90425\C,0,-1.3915,0.,4.90425\H,0,-2.4715,0.,4.90425\C,0,0.,0.
 ,-1.10425\C,0,0.,-1.2050743494,-1.8\H,0,0.,-2.1403817855,-1.26\H,0,0.,

 Normal termination of Gaussian 09 at Sun Mar 19 04:20:36 2017.
