 Gaussian 09, Revision D.01,
 Gaussian 09:  EM64L-G09RevD.01 24-Apr-2013

 -------------------------------------------
 #p pbe1pbe empiricaldispersion=gd3bj 6-31g*
 -------------------------------------------

 ---------------
 benzene monomer
 ---------------
 Symbolic Z-matrix:
 Charge =  0 Multiplicity = 1

                         Standard orientation:
 ---------------------------------------------------------------------
 Center     Atomic      Atomic             Coordinates (Angstroms)
 Number     Number       Type             X           Y           Z
 ---------------------------------------------------------------------
      1          6           0        0.000000    1.391500    0.000000
      2          1           0        0.000000    2.471500    0.000000
      3          6           0        1.205074    0.695750    0.000000
      4          1           0        2.140382    1.235750    0.000000
      5          6           0       -1.205074    0.695750    0.000000
      6          1           0       -2.140382    1.235750    0.000000
      7          6           0        1.205074   -0.695750    0.000000
      8          1           0        2.140382   -1.235750    0.000000
      9          6           0       -1.205074   -0.695750    0.000000
     10          1           0       -2.140382   -1.235750    0.000000
     11          6           0        0.000000   -1.391500    0.000000
     12          1           0        0.000000   -2.471500    0.000000
 ---------------------------------------------------------------------

 SCF Done:  E(RPBE1PBE) =  -231.973265787     A.U. after   10 cycles

 The electronic state is 1-A1G.
 Alpha  occ. eigenvalues --  -10.23500 -10.23471 -10.23471 -10.23410 -10.23410
 Alpha  occ. eigenvalues --  -10.23380  -0.87494  -0.76428  -0.76428  -0.61712
 Alpha  occ. eigenvalues --   -0.61712  -0.53667  -0.47321  -0.45347  -0.43012
 Alpha  occ. eigenvalues --   -0.43012  -0.37546  -0.34993  -0.34993  -0.25749
 Alpha  occ. eigenvalues --   -0.25749
 Alpha virt. eigenvalues --    0.00960   0.00960   0.10360   0.16006   0.16006
 Alpha virt. eigenvalues --    0.17657   0.19739   0.19739   0.20793   0.31422
 Alpha virt. eigenvalues --    0.31422   0.32966   0.32966   0.48722   0.54721

 Mulliken charges:
               1
     1  C   -0.168441
     2  H    0.168441
     3  C   -0.168441
     4  H    0.168441
     5  C   -0.168441
     6  H    0.168441
     7  C   -0.168441
     8  H    0.168441
     9  C   -0.168441
    10  H    0.168441
    11  C   -0.168441
    12  H    0.168441
 Sum of Mulliken charges =   0.00000

 Dipole moment (field-independent basis, Debye):
    X=              0.0000    Y=              0.0000    Z=              0.0000  Tot=              0.0000
 Quadrupole moment (field-independent basis, Debye-Ang):
   XX=            -30.8695   YY=            -30.8695   ZZ=            -38.7998
   XY=              0.0000   XZ=              0.0000   YZ=              0.0000

 Normal termination of Gaussian 09 at Sun Mar 19 01:37:51 2017.
