 Gaussian 09, Revision D.01,
 Gaussian 09:  EM64L-G09RevD.01 24-Apr-2013

 ----------------------------------------------
 #p b3lyp empiricaldispersion=gd3bj jun-cc-pVTZ
 ----------------------------------------------

 ---------------------
 benzene dimer 5.40425
 ---------------------
 Symbolic Z-matrix:
 Charge =  0 Multiplicity = 1

                         Standard orientation:
 ---------------------------------------------------------------------
 Center     Atomic      Atomic             Coordinates (Angstroms)
 Number     Number       Type             X           Y           Z
 ---------------------------------------------------------------------
      1          6           0       -1.391500    0.000000   -3.950000
      2          1           0       -2.471500    0.000000   -3.950000
      3          6           0       -0.695750    1.205074   -3.950000
      4          1           0       -1.235750    2.140382   -3.950000
      5          6           0       -0.695750   -1.205074   -3.950000
      6          1           0       -1.235750   -2.140382   -3.950000
      7          6           0        0.695750    1.205074   -3.950000
      8          1           0        1.235750    2.140382   -3.950000
      9          6           0        0.695750   -1.205074   -3.950000
     10          1           0        1.235750   -2.140382   -3.950000
     11          6           0        1.391500    0.000000   -3.950000
     12          1           0        2.471500    0.000000   -3.950000
     13          6           0        0.000000    0.000000    2.558500
     14          6           0        0.000000   -1.205074    3.254250
     15          1           0        0.000000   -2.140382    2.714250
     16          1           0        0.000000    0.000000    1.478500
     17          6           0        0.000000   -1.205074    4.645750
     18          1           0        0.000000   -2.140382    5.185750
     19          6           0        0.000000    0.000000    5.341500
     20          1           0        0.000000    0.000000    6.421500
     21          6           0        0.000000    1.205074    4.645750
     22          1           0        0.000000    2.140382    5.185750
     23          6           0        0.000000    1.205074    3.254250
     24          1           0        0.000000    2.140382    2.714250
 ---------------------------------------------------------------------

 SCF Done:  E(RB3LYP) =  -464.707396352     A.U. after    9 cycles

 The electronic state is 1-A1.
 Alpha  occ. eigenvalues --  -10.18172 -10.18146 -10.18145 -10.18087 -10.18085
 Alpha  occ. eigenvalues --  -10.18059 -10.17929 -10.17901 -10.17886 -10.17838
 Alpha  occ. eigenvalues --  -10.17837 -10.17794  -0.86069  -0.85817  -0.75201
 Alpha  occ. eigenvalues --   -0.75198  -0.74954  -0.74942  -0.60872  -0.60871
 Alpha  occ. eigenvalues --   -0.60624  -0.60617  -0.53067  -0.52815  -0.46680
 Alpha  occ. eigenvalues --   -0.46429  -0.45336  -0.45085  -0.42802  -0.42798
 Alpha  occ. eigenvalues --   -0.42560  -0.42537  -0.37511  -0.37257  -0.35058
 Alpha  occ. eigenvalues --   -0.35055  -0.34814  -0.34796  -0.26137  -0.26133
 Alpha  occ. eigenvalues --   -0.25889  -0.25876
 Alpha virt. eigenvalues --   -0.01849  -0.01845  -0.01599  -0.01592  -0.00673
 Alpha virt. eigenvalues --    0.00252   0.00967   0.01272   0.01694   0.01719
 Alpha virt. eigenvalues --    0.03369   0.03431   0.03650   0.03804   0.04393

 Mulliken charges:
               1
     1  C   -0.116074
     2  H    0.117008
     3  C   -0.117057
     4  H    0.116812
     5  C   -0.117057
     6  H    0.116812
     7  C   -0.117057
     8  H    0.116812
     9  C   -0.117057
    10  H    0.116812
    11  C   -0.116074
    12  H    0.117008
    13  C   -0.111274
    14  C   -0.137234
    15  H    0.113935
    16  H    0.132264
    17  C   -0.111563
    18  H    0.117510
    19  C   -0.102702
    20  H    0.115529
    21  C   -0.111563
    22  H    0.117510
    23  C   -0.137234
    24  H    0.113935
 Sum of Mulliken charges =   0.00000

 Dipole moment (field-independent basis, Debye):
    X=              0.0000    Y=              0.0000    Z=             -0.0831  Tot=              0.0831
 Quadrupole moment (field-independent basis, Debye-Ang):
   XX=            -72.2674   YY=            -64.8538   ZZ=            -72.5708
   XY=              0.0000   XZ=              0.0000   YZ=              0.0000

 Normal termination of Gaussian 09 at Sun Mar 19 01:12:42 2017.
