 Gaussian 09, Revision D.01,
 Gaussian 09:  EM64L-G09RevD.01 24-Apr-2013

 ------------------------------------------------
 #p pbe1pbe empiricaldispersion=gd3bj may-cc-pVQZ
 ------------------------------------------------

 ---------------------
 benzene dimer 5.40425
 ---------------------
 Symbolic Z-matrix:
 Charge =  0 Multiplicity = 1

                         Standard orientation:
 ---------------------------------------------------------------------
 Center     Atomic      Atomic             Coordinates (Angstroms)
 Number     Number       Type             X           Y           Z
 ---------------------------------------------------------------------
      1          6           0       -1.391500    0.000000   -3.950000
      2          1           0       -2.471500    0.000000   -3.950000
      3          6           0       -0.695750    1.205074   -3.950000
      4          1           0       -1.235750    2.140382   -3.950000
      5          6           0       -0.695750   -1.205074   -3.950000
      6          1           0       -1.235750   -2.140382   -3.950000
      7          6           0        0.695750    1.205074   -3.950000
      8          1           0        1.235750    2.140382   -3.950000
      9          6           0        0.695750   -1.205074   -3.950000
     10          1           0        1.235750   -2.140382   -3.950000
     11          6           0        1.391500    0.000000   -3.950000
     12          1           0        2.471500    0.000000   -3.950000
     13          6           0        0.000000    0.000000    2.558500
     14          6           0        0.000000   -1.205074    3.254250
     15          1           0        0.000000   -2.140382    2.714250
     16          1           0        0.000000    0.000000    1.478500
     17          6           0        0.000000   -1.205074    4.645750
     18          1           0        0.000000   -2.140382    5.185750
     19          6           0        0.000000    0.000000    5.341500
     20          1           0        0.000000    0.000000    6.421500
     21          6           0        0.000000    1.205074    4.645750
     22          1           0        0.000000    2.140382    5.185750
     23          6           0        0.000000    1.205074    3.254250
     24          1           0        0.000000    2.140382    2.714250
 ---------------------------------------------------------------------

 SCF Done:  E(RPBE1PBE) =  -464.132502211     A.U. after    9 cycles

 The electronic state is 1-A1.
 Alpha  occ. eigenvalues --  -10.22975 -10.22946 -10.22944 -10.22881 -10.22879
 Alpha  occ. eigenvalues --  -10.22849 -10.22716 -10.22684 -10.22668 -10.22615
 Alpha  occ. eigenvalues --  -10.22615 -10.22568  -0.88418  -0.88150  -0.77241
 Alpha  occ. eigenvalues --   -0.77238  -0.76978  -0.76966  -0.62485  -0.62484
 Alpha  occ. eigenvalues --   -0.62221  -0.62214  -0.54437  -0.54170  -0.47833
 Alpha  occ. eigenvalues --   -0.47566  -0.46471  -0.46204  -0.43750  -0.43746
 Alpha  occ. eigenvalues --   -0.43493  -0.43469  -0.38756  -0.38486  -0.35777
 Alpha  occ. eigenvalues --   -0.35774  -0.35518  -0.35498  -0.26976  -0.26972
 Alpha  occ. eigenvalues --   -0.26712  -0.26698
 Alpha virt. eigenvalues --   -0.01152  -0.01148  -0.00886  -0.00880  -0.00195
 Alpha virt. eigenvalues --    0.00834   0.01399   0.01751   0.02160   0.02270
 Alpha virt. eigenvalues --    0.03734   0.03834   0.04048   0.04149   0.04369

 Mulliken charges:
               1
     1  C   -0.190932
     2  H    0.183843
     3  C   -0.181186
     4  H    0.184688
     5  C   -0.181186
     6  H    0.184688
     7  C   -0.181186
     8  H    0.184688
     9  C   -0.181186
    10  H    0.184688
    11  C   -0.190932
    12  H    0.183843
    13  C   -0.173920
    14  C   -0.173293
    15  H    0.186066
    16  H    0.195618
    17  C   -0.195136
    18  H    0.184031
    19  C   -0.211040
    20  H    0.186179
    21  C   -0.195136
    22  H    0.184031
    23  C   -0.173293
    24  H    0.186066
 Sum of Mulliken charges =   0.00000

 Dipole moment (field-independent basis, Debye):
    X=              0.0000    Y=              0.0000    Z=             -0.0869  Tot=              0.0869
 Quadrupole moment (field-independent basis, Debye-Ang):
   XX=            -71.5052   YY=            -63.6397   ZZ=            -71.8059
   XY=              0.0000   XZ=              0.0000   YZ=              0.0000

 Normal termination of Gaussian 09 at Sun Mar 19 03:28:48 2017.
