 Gaussian 09, Revision D.01,
 Gaussian 09:  EM64L-G09RevD.01 24-Apr-2013

 --------------------
 #p m062x may-cc-pVQZ
 --------------------

 ---------------------
 benzene dimer 2.50425
 ---------------------
 Symbolic Z-matrix:
 Charge =  0 Multiplicity = 1

                         Standard orientation:
 ---------------------------------------------------------------------
 Center     Atomic      Atomic             Coordinates (Angstroms)
 Number     Number       Type             X           Y           Z
 ---------------------------------------------------------------------
      1          6           0       -1.391500    0.000000   -2.500000
      2          1           0       -2.471500    0.000000   -2.500000
      3          6           0       -0.695750    1.205074   -2.500000
      4          1           0       -1.235750    2.140382   -2.500000
      5          6           0       -0.695750   -1.205074   -2.500000
      6          1           0       -1.235750   -2.140382   -2.500000
      7          6           0        0.695750    1.205074   -2.500000
      8          1           0        1.235750    2.140382   -2.500000
      9          6           0        0.695750   -1.205074   -2.500000
     10          1           0        1.235750   -2.140382   -2.500000
     11          6           0        1.391500    0.000000   -2.500000
     12          1           0        2.471500    0.000000   -2.500000
     13          6           0        0.000000    0.000000    1.108500
     14          6           0        0.000000   -1.205074    1.804250
     15          1           0        0.000000   -2.140382    1.264250
     16          1           0        0.000000    0.000000    0.028500
     17          6           0        0.000000   -1.205074    3.195750
     18          1           0        0.000000   -2.140382    3.735750
     19          6           0        0.000000    0.000000    3.891500
     20          1           0        0.000000    0.000000    4.971500
     21          6           0        0.000000    1.205074    3.195750
     22          1           0        0.000000    2.140382    3.735750
     23          6           0        0.000000    1.205074    1.804250
     24          1           0        0.000000    2.140382    1.264250
 ---------------------------------------------------------------------

 SCF Done:  E(RM062X) =  -464.478714858     A.U. after   10 cycles

 The electronic state is 1-A1.
 Alpha  occ. eigenvalues --  -10.54797 -10.54764 -10.54752 -10.54681 -10.54667
 Alpha  occ. eigenvalues --  -10.54634 -10.53718 -10.53671 -10.53609 -10.53536
 Alpha  occ. eigenvalues --  -10.53528 -10.53268  -0.96599  -0.95399  -0.84890
 Alpha  occ. eigenvalues --   -0.84863  -0.83765  -0.83672  -0.69174  -0.69169
 Alpha  occ. eigenvalues --   -0.68064  -0.68019  -0.60708  -0.59593  -0.53938
 Alpha  occ. eigenvalues --   -0.52885  -0.51869  -0.50723  -0.49431  -0.49396
 Alpha  occ. eigenvalues --   -0.48501  -0.48358  -0.44432  -0.43476  -0.40826
 Alpha  occ. eigenvalues --   -0.40806  -0.39744  -0.39425  -0.31623  -0.31542
 Alpha  occ. eigenvalues --   -0.30366  -0.30137
 Alpha virt. eigenvalues --   -0.00319   0.00617   0.00817   0.00968   0.01144
 Alpha virt. eigenvalues --    0.01185   0.02215   0.02322   0.02375   0.02393
 Alpha virt. eigenvalues --    0.02902   0.03124   0.03885   0.04227   0.04309

 Mulliken charges:
               1
     1  C   -0.475274
     2  H    0.480486
     3  C   -0.487146
     4  H    0.480840
     5  C   -0.487146
     6  H    0.480840
     7  C   -0.487146
     8  H    0.480840
     9  C   -0.487146
    10  H    0.480840
    11  C   -0.475274
    12  H    0.480486
    13  C   -0.594767
    14  C   -0.413300
    15  H    0.492282
    16  H    0.377208
    17  C   -0.406537
    18  H    0.453183
    19  C   -0.447429
    20  H    0.428529
    21  C   -0.406537
    22  H    0.453183
    23  C   -0.413300
    24  H    0.492282
 Sum of Mulliken charges =   0.00000

 Dipole moment (field-independent basis, Debye):
    X=              0.0000    Y=              0.0000    Z=             -0.5087  Tot=              0.5087
 Quadrupole moment (field-independent basis, Debye-Ang):
   XX=            -71.6854   YY=            -64.2003   ZZ=            -72.4092
   XY=              0.0000   XZ=              0.0000   YZ=              0.0000

 1\1\GINC-HOLY2A14108\SP\RM062X\May-CC-pVQZ\C12H12\ROOT\19-Mar-2017\0\\
 #p m062x may-cc-pVQZ\\benzene dimer 2.50425\\0,1\C,0,1.3915,0.,2.50425
 \H,0,2.4715,0.,2.50425\C,0,0.69575,1.2050743494,2.50425\H,0,1.23575,2.
 1403817855,2.50425\C,0,0.69575,-1.2050743494,2.50425\H,0,1.23575,-2.14
 03817855,2.50425\C,0,-0.69575,1.2050743494,2.50425\H,0,-1.23575,2.1403
 817855,2.50425\C,0,-0.69575,-1.2050743494,2.50425\H,0,-1.23575,-2.1403
 817855,2.50425\C,0,-1.3915,0.,2.50425\H,0,-2.4715,0.,2.50425\C,0,0.,0.
 ,-1.10425\C,0,0.,-1.2050743494,-1.8\H,0,0.,-2.1403817855,-1.26\H,0,0.,

 Normal termination of Gaussian 09 at Sun Mar 19 03:04:13 2017.
