 Gaussian 09, Revision D.01,
 Gaussian 09:  EM64L-G09RevD.01 24-Apr-2013

 ----------------------------------------------
 #p b3lyp empiricaldispersion=gd3bj may-cc-pVQZ
 ----------------------------------------------

 ---------------------
 benzene dimer 3.00425
 ---------------------
 Symbolic Z-matrix:
 Charge =  0 Multiplicity = 1

                         Standard orientation:
 ---------------------------------------------------------------------
 Center     Atomic      Atomic             Coordinates (Angstroms)
 Number     Number       Type             X           Y           Z
 ---------------------------------------------------------------------
      1          6           0       -1.391500    0.000000   -2.750000
      2          1           0       -2.471500    0.000000   -2.750000
      3          6           0       -0.695750    1.205074   -2.750000
      4          1           0       -1.235750    2.140382   -2.750000
      5          6           0       -0.695750   -1.205074   -2.750000
      6          1           0       -1.235750   -2.140382   -2.750000
      7          6           0        0.695750    1.205074   -2.750000
      8          1           0        1.235750    2.140382   -2.750000
      9          6           0        0.695750   -1.205074   -2.750000
     10          1           0        1.235750   -2.140382   -2.750000
     11          6           0        1.391500    0.000000   -2.750000
     12          1           0        2.471500    0.000000   -2.750000
     13          6           0        0.000000    0.000000    1.358500
     14          6           0        0.000000   -1.205074    2.054250
     15          1           0        0.000000   -2.140382    1.514250
     16          1           0        0.000000    0.000000    0.278500
     17          6           0        0.000000   -1.205074    3.445750
     18          1           0        0.000000   -2.140382    3.985750
     19          6           0        0.000000    0.000000    4.141500
     20          1           0        0.000000    0.000000    5.221500
     21          6           0        0.000000    1.205074    3.445750
     22          1           0        0.000000    2.140382    3.985750
     23          6           0        0.000000    1.205074    2.054250
     24          1           0        0.000000    2.140382    1.514250
 ---------------------------------------------------------------------

 SCF Done:  E(RB3LYP) =  -464.742304369     A.U. after    9 cycles

 The electronic state is 1-A1.
 Alpha  occ. eigenvalues --  -10.18076 -10.18051 -10.18044 -10.17990 -10.17982
 Alpha  occ. eigenvalues --  -10.17957 -10.17331 -10.17295 -10.17252 -10.17201
 Alpha  occ. eigenvalues --  -10.17194 -10.17029  -0.86254  -0.85441  -0.75382
 Alpha  occ. eigenvalues --   -0.75366  -0.74606  -0.74547  -0.61054  -0.61050
 Alpha  occ. eigenvalues --   -0.60283  -0.60248  -0.53272  -0.52490  -0.46861
 Alpha  occ. eigenvalues --   -0.46097  -0.45542  -0.44748  -0.43010  -0.42989
 Alpha  occ. eigenvalues --   -0.42266  -0.42205  -0.37759  -0.36948  -0.35263
 Alpha  occ. eigenvalues --   -0.35249  -0.34512  -0.34368  -0.26405  -0.26395
 Alpha  occ. eigenvalues --   -0.25601  -0.25499
 Alpha virt. eigenvalues --   -0.02146  -0.02077  -0.01263  -0.01242  -0.01031
 Alpha virt. eigenvalues --    0.00113   0.00391   0.00898   0.01802   0.02103
 Alpha virt. eigenvalues --    0.02904   0.02973   0.03747   0.03896   0.04123

 Mulliken charges:
               1
     1  C   -0.174536
     2  H    0.154183
     3  C   -0.145894
     4  H    0.155365
     5  C   -0.145894
     6  H    0.155365
     7  C   -0.145894
     8  H    0.155365
     9  C   -0.145894
    10  H    0.155365
    11  C   -0.174536
    12  H    0.154183
    13  C   -0.122370
    14  C   -0.144488
    15  H    0.173541
    16  H    0.106291
    17  C   -0.157959
    18  H    0.157389
    19  C   -0.193786
    20  H    0.155717
    21  C   -0.157959
    22  H    0.157389
    23  C   -0.144488
    24  H    0.173541
 Sum of Mulliken charges =   0.00000

 Dipole moment (field-independent basis, Debye):
    X=              0.0000    Y=              0.0000    Z=             -0.3420  Tot=              0.3420
 Quadrupole moment (field-independent basis, Debye-Ang):
   XX=            -72.0484   YY=            -64.9154   ZZ=            -72.7863
   XY=              0.0000   XZ=              0.0000   YZ=              0.0000

 Normal termination of Gaussian 09 at Sun Mar 19 02:46:22 2017.
