 Gaussian 09, Revision D.01,
 Gaussian 09:  EM64L-G09RevD.01 24-Apr-2013

 ------------
 #p hf 6-31g*
 ------------

 ---------------------
 benzene dimer 2.80425
 ---------------------
 Symbolic Z-matrix:
 Charge =  0 Multiplicity = 1

                         Standard orientation:
 ---------------------------------------------------------------------
 Center     Atomic      Atomic             Coordinates (Angstroms)
 Number     Number       Type             X           Y           Z
 ---------------------------------------------------------------------
      1          6           0       -1.391500    0.000000   -2.650000
      2          1           0       -2.471500    0.000000   -2.650000
      3          6           0       -0.695750    1.205074   -2.650000
      4          1           0       -1.235750    2.140382   -2.650000
      5          6           0       -0.695750   -1.205074   -2.650000
      6          1           0       -1.235750   -2.140382   -2.650000
      7          6           0        0.695750    1.205074   -2.650000
      8          1           0        1.235750    2.140382   -2.650000
      9          6           0        0.695750   -1.205074   -2.650000
     10          1           0        1.235750   -2.140382   -2.650000
     11          6           0        1.391500    0.000000   -2.650000
     12          1           0        2.471500    0.000000   -2.650000
     13          6           0        0.000000    0.000000    1.258500
     14          6           0        0.000000   -1.205074    1.954250
     15          1           0        0.000000   -2.140382    1.414250
     16          1           0        0.000000    0.000000    0.178500
     17          6           0        0.000000   -1.205074    3.345750
     18          1           0        0.000000   -2.140382    3.885750
     19          6           0        0.000000    0.000000    4.041500
     20          1           0        0.000000    0.000000    5.121500
     21          6           0        0.000000    1.205074    3.345750
     22          1           0        0.000000    2.140382    3.885750
     23          6           0        0.000000    1.205074    1.954250
     24          1           0        0.000000    2.140382    1.414250
 ---------------------------------------------------------------------

 SCF Done:  E(RHF) =  -461.406643265     A.U. after   12 cycles

 The electronic state is 1-A1.
 Alpha  occ. eigenvalues --  -11.23594 -11.23543 -11.23530 -11.23421 -11.23407
 Alpha  occ. eigenvalues --  -11.23355 -11.22554 -11.22494 -11.22397 -11.22315
 Alpha  occ. eigenvalues --  -11.22300 -11.22033  -1.14950  -1.13798  -1.01377
 Alpha  occ. eigenvalues --   -1.01352  -1.00289  -1.00199  -0.82257  -0.82253
 Alpha  occ. eigenvalues --   -0.81179  -0.81135  -0.70867  -0.69773  -0.64322
 Alpha  occ. eigenvalues --   -0.63266  -0.61626  -0.60509  -0.58707  -0.58679
 Alpha  occ. eigenvalues --   -0.57667  -0.57591  -0.50196  -0.49314  -0.49296
 Alpha  occ. eigenvalues --   -0.48931  -0.48264  -0.47875  -0.33471  -0.33467
 Alpha  occ. eigenvalues --   -0.32382  -0.32194
 Alpha virt. eigenvalues --    0.14354   0.14375   0.15463   0.15537   0.23123
 Alpha virt. eigenvalues --    0.24265   0.28860   0.29118   0.29982   0.30289
 Alpha virt. eigenvalues --    0.32925   0.32941   0.33428   0.33710   0.33838

 Mulliken charges:
               1
     1  C   -0.199687
     2  H    0.203839
     3  C   -0.203057
     4  H    0.202586
     5  C   -0.203057
     6  H    0.202586
     7  C   -0.203057
     8  H    0.202586
     9  C   -0.203057
    10  H    0.202586
    11  C   -0.199687
    12  H    0.203839
    13  C   -0.211536
    14  C   -0.205267
    15  H    0.196385
    16  H    0.235311
    17  C   -0.199354
    18  H    0.196019
    19  C   -0.202042
    20  H    0.196282
    21  C   -0.199354
    22  H    0.196019
    23  C   -0.205267
    24  H    0.196385
 Sum of Mulliken charges =   0.00000

 Dipole moment (field-independent basis, Debye):
    X=              0.0000    Y=              0.0000    Z=             -0.4488  Tot=              0.4488
 Quadrupole moment (field-independent basis, Debye-Ang):
   XX=            -71.0000   YY=            -62.8983   ZZ=            -71.8384
   XY=              0.0000   XZ=              0.0000   YZ=              0.0000

 Normal termination of Gaussian 09 at Sun Mar 19 00:46:55 2017.
