 Gaussian 09, Revision D.01,
 Gaussian 09:  EM64L-G09RevD.01 24-Apr-2013

 ----------------------------------------------
 #p b3lyp empiricaldispersion=gd3bj jun-cc-pVTZ
 ----------------------------------------------

 ---------------------
 benzene dimer 2.70425
 ---------------------
 Symbolic Z-matrix:
 Charge =  0 Multiplicity = 1

                         Standard orientation:
 ---------------------------------------------------------------------
 Center     Atomic      Atomic             Coordinates (Angstroms)
 Number     Number       Type             X           Y           Z
 ---------------------------------------------------------------------
      1          6           0       -1.391500    0.000000   -2.600000
      2          1           0       -2.471500    0.000000   -2.600000
      3          6           0       -0.695750    1.205074   -2.600000
      4          1           0       -1.235750    2.140382   -2.600000
      5          6           0       -0.695750   -1.205074   -2.600000
      6          1           0       -1.235750   -2.140382   -2.600000
      7          6           0        0.695750    1.205074   -2.600000
      8          1           0        1.235750    2.140382   -2.600000
      9          6           0        0.695750   -1.205074   -2.600000
     10          1           0        1.235750   -2.140382   -2.600000
     11          6           0        1.391500    0.000000   -2.600000
     12          1           0        2.471500    0.000000   -2.600000
     13          6           0        0.000000    0.000000    1.208500
     14          6           0        0.000000   -1.205074    1.904250
     15          1           0        0.000000   -2.140382    1.364250
     16          1           0        0.000000    0.000000    0.128500
     17          6           0        0.000000   -1.205074    3.295750
     18          1           0        0.000000   -2.140382    3.835750
     19          6           0        0.000000    0.000000    3.991500
     20          1           0        0.000000    0.000000    5.071500
     21          6           0        0.000000    1.205074    3.295750
     22          1           0        0.000000    2.140382    3.835750
     23          6           0        0.000000    1.205074    1.904250
     24          1           0        0.000000    2.140382    1.364250
 ---------------------------------------------------------------------

 SCF Done:  E(RB3LYP) =  -464.711265361     A.U. after   10 cycles

 The electronic state is 1-A1.
 Alpha  occ. eigenvalues --  -10.18430 -10.18406 -10.18398 -10.18347 -10.18337
 Alpha  occ. eigenvalues --  -10.18315 -10.17544 -10.17510 -10.17465 -10.17398
 Alpha  occ. eigenvalues --  -10.17391 -10.17171  -0.86370  -0.85382  -0.75483
 Alpha  occ. eigenvalues --   -0.75462  -0.74548  -0.74475  -0.61126  -0.61122
 Alpha  occ. eigenvalues --   -0.60203  -0.60163  -0.53318  -0.52387  -0.46905
 Alpha  occ. eigenvalues --   -0.46008  -0.45599  -0.44645  -0.43063  -0.43036
 Alpha  occ. eigenvalues --   -0.42171  -0.42161  -0.37787  -0.36843  -0.35307
 Alpha  occ. eigenvalues --   -0.35290  -0.34408  -0.34173  -0.26506  -0.26467
 Alpha  occ. eigenvalues --   -0.25503  -0.25345
 Alpha virt. eigenvalues --   -0.02231  -0.02128  -0.01139  -0.01100  -0.00757
 Alpha virt. eigenvalues --    0.00453   0.00657   0.01211   0.02220   0.02527
 Alpha virt. eigenvalues --    0.03295   0.03337   0.04445   0.04500   0.04712

 Mulliken charges:
               1
     1  C   -0.141783
     2  H    0.121844
     3  C   -0.121470
     4  H    0.120472
     5  C   -0.121470
     6  H    0.120472
     7  C   -0.121470
     8  H    0.120472
     9  C   -0.121470
    10  H    0.120472
    11  C   -0.141783
    12  H    0.121844
    13  C    0.106273
    14  C   -0.173232
    15  H    0.116637
    16  H    0.093299
    17  C   -0.133066
    18  H    0.117298
    19  C   -0.115702
    20  H    0.104729
    21  C   -0.133066
    22  H    0.117298
    23  C   -0.173232
    24  H    0.116637
 Sum of Mulliken charges =   0.00000

 Dipole moment (field-independent basis, Debye):
    X=              0.0000    Y=              0.0000    Z=             -0.4238  Tot=              0.4238
 Quadrupole moment (field-independent basis, Debye-Ang):
   XX=            -72.0359   YY=            -64.9627   ZZ=            -72.9230
   XY=              0.0000   XZ=              0.0000   YZ=              0.0000

 1\1\GINC-HOLY2A14108\SP\RB3LYP\Jun-CC-pVTZ\C12H12\ROOT\19-Mar-2017\0\\
 #p b3lyp empiricaldispersion=gd3bj jun-cc-pVTZ\\benzene dimer 2.70425\
 \0,1\C,0,1.3915,0.,2.70425\H,0,2.4715,0.,2.70425\C,0,0.69575,1.2050743
 494,2.70425\H,0,1.23575,2.1403817855,2.70425\C,0,0.69575,-1.2050743494
 ,2.70425\H,0,1.23575,-2.1403817855,2.70425\C,0,-0.69575,1.2050743494,2
 .70425\H,0,-1.23575,2.1403817855,2.70425\C,0,-0.69575,-1.2050743494,2.
 70425\H,0,-1.23575,-2.1403817855,2.70425\C,0,-1.3915,0.,2.70425\H,0,-2
 .4715,0.,2.70425\C,0,0.,0.,-1.10425\C,0,0.,-1.2050743494,-1.8\H,0,0.,-

 Normal termination of Gaussian 09 at Sun Mar 19 00:59:03 2017.
