 Gaussian 09, Revision D.01,
 Gaussian 09:  EM64L-G09RevD.01 24-Apr-2013

 ----------------------------------------------
 #p b3lyp empiricaldispersion=gd3bj jul-cc-pVDZ
 ----------------------------------------------

 ---------------------
 benzene dimer 2.90425
 ---------------------
 Symbolic Z-matrix:
 Charge =  0 Multiplicity = 1

                         Standard orientation:
 ---------------------------------------------------------------------
 Center     Atomic      Atomic             Coordinates (Angstroms)
 Number     Number       Type             X           Y           Z
 ---------------------------------------------------------------------
      1          6           0       -1.391500    0.000000   -2.700000
      2          1           0       -2.471500    0.000000   -2.700000
      3          6           0       -0.695750    1.205074   -2.700000
      4          1           0       -1.235750    2.140382   -2.700000
      5          6           0       -0.695750   -1.205074   -2.700000
      6          1           0       -1.235750   -2.140382   -2.700000
      7          6           0        0.695750    1.205074   -2.700000
      8          1           0        1.235750    2.140382   -2.700000
      9          6           0        0.695750   -1.205074   -2.700000
     10          1           0        1.235750   -2.140382   -2.700000
     11          6           0        1.391500    0.000000   -2.700000
     12          1           0        2.471500    0.000000   -2.700000
     13          6           0        0.000000    0.000000    1.308500
     14          6           0        0.000000   -1.205074    2.004250
     15          1           0        0.000000   -2.140382    1.464250
     16          1           0        0.000000    0.000000    0.228500
     17          6           0        0.000000   -1.205074    3.395750
     18          1           0        0.000000   -2.140382    3.935750
     19          6           0        0.000000    0.000000    4.091500
     20          1           0        0.000000    0.000000    5.171500
     21          6           0        0.000000    1.205074    3.395750
     22          1           0        0.000000    2.140382    3.935750
     23          6           0        0.000000    1.205074    2.004250
     24          1           0        0.000000    2.140382    1.464250
 ---------------------------------------------------------------------

 SCF Done:  E(RB3LYP) =  -464.584084572     A.U. after   11 cycles

 The electronic state is 1-A1.
 Alpha  occ. eigenvalues --  -10.19598 -10.19582 -10.19574 -10.19527 -10.19518
 Alpha  occ. eigenvalues --  -10.19496 -10.18812 -10.18784 -10.18743 -10.18685
 Alpha  occ. eigenvalues --  -10.18680 -10.18492  -0.86526  -0.85673  -0.75626
 Alpha  occ. eigenvalues --   -0.75609  -0.74813  -0.74751  -0.61183  -0.61180
 Alpha  occ. eigenvalues --   -0.60377  -0.60340  -0.53245  -0.52429  -0.46882
 Alpha  occ. eigenvalues --   -0.46085  -0.45535  -0.44704  -0.42986  -0.42965
 Alpha  occ. eigenvalues --   -0.42210  -0.42159  -0.37710  -0.36866  -0.35174
 Alpha  occ. eigenvalues --   -0.35160  -0.34389  -0.34221  -0.26380  -0.26360
 Alpha  occ. eigenvalues --   -0.25527  -0.25409
 Alpha virt. eigenvalues --   -0.02085  -0.02004  -0.01149  -0.01120  -0.00298
 Alpha virt. eigenvalues --    0.00939   0.01067   0.01682   0.02691   0.02959
 Alpha virt. eigenvalues --    0.03876   0.03890   0.05220   0.05235   0.05562

 Mulliken charges:
               1
     1  C    0.226241
     2  H   -0.209565
     3  C    0.203134
     4  H   -0.207849
     5  C    0.203134
     6  H   -0.207849
     7  C    0.203134
     8  H   -0.207849
     9  C    0.203134
    10  H   -0.207849
    11  C    0.226241
    12  H   -0.209565
    13  C    0.407750
    14  C    0.219251
    15  H   -0.193716
    16  H   -0.274588
    17  C    0.116464
    18  H   -0.199374
    19  C    0.168714
    20  H   -0.201619
    21  C    0.116464
    22  H   -0.199374
    23  C    0.219251
    24  H   -0.193716
 Sum of Mulliken charges =   0.00000

 Dipole moment (field-independent basis, Debye):
    X=              0.0000    Y=              0.0000    Z=             -0.3663  Tot=              0.3663
 Quadrupole moment (field-independent basis, Debye-Ang):
   XX=            -72.1927   YY=            -65.2364   ZZ=            -72.9372
   XY=              0.0000   XZ=              0.0000   YZ=              0.0000

 1\1\GINC-HOLY2A14108\SP\RB3LYP\Jul-CC-pVDZ\C12H12\ROOT\19-Mar-2017\0\\
 #p b3lyp empiricaldispersion=gd3bj jul-cc-pVDZ\\benzene dimer 2.90425\
 \0,1\C,0,1.3915,0.,2.90425\H,0,2.4715,0.,2.90425\C,0,0.69575,1.2050743
 494,2.90425\H,0,1.23575,2.1403817855,2.90425\C,0,0.69575,-1.2050743494
 ,2.90425\H,0,1.23575,-2.1403817855,2.90425\C,0,-0.69575,1.2050743494,2
 .90425\H,0,-1.23575,2.1403817855,2.90425\C,0,-0.69575,-1.2050743494,2.
 90425\H,0,-1.23575,-2.1403817855,2.90425\C,0,-1.3915,0.,2.90425\H,0,-2
 .4715,0.,2.90425\C,0,0.,0.,-1.10425\C,0,0.,-1.2050743494,-1.8\H,0,0.,-

 Normal termination of Gaussian 09 at Sun Mar 19 00:49:21 2017.
