 Gaussian 09, Revision D.01,
 Gaussian 09:  EM64L-G09RevD.01 24-Apr-2013

 ------------------------------------------
 #p b3lyp empiricaldispersion=gd3bj cc-pVTZ
 ------------------------------------------

 ---------------------
 benzene dimer 2.10425
 ---------------------
 Symbolic Z-matrix:
 Charge =  0 Multiplicity = 1

                         Standard orientation:
 ---------------------------------------------------------------------
 Center     Atomic      Atomic             Coordinates (Angstroms)
 Number     Number       Type             X           Y           Z
 ---------------------------------------------------------------------
      1          6           0       -1.391500    0.000000   -2.300000
      2          1           0       -2.471500    0.000000   -2.300000
      3          6           0       -0.695750    1.205074   -2.300000
      4          1           0       -1.235750    2.140382   -2.300000
      5          6           0       -0.695750   -1.205074   -2.300000
      6          1           0       -1.235750   -2.140382   -2.300000
      7          6           0        0.695750    1.205074   -2.300000
      8          1           0        1.235750    2.140382   -2.300000
      9          6           0        0.695750   -1.205074   -2.300000
     10          1           0        1.235750   -2.140382   -2.300000
     11          6           0        1.391500    0.000000   -2.300000
     12          1           0        2.471500    0.000000   -2.300000
     13          6           0        0.000000    0.000000    0.908500
     14          6           0        0.000000   -1.205074    1.604250
     15          1           0        0.000000   -2.140382    1.064250
     16          1           0        0.000000    0.000000   -0.171500
     17          6           0        0.000000   -1.205074    2.995750
     18          1           0        0.000000   -2.140382    3.535750
     19          6           0        0.000000    0.000000    3.691500
     20          1           0        0.000000    0.000000    4.771500
     21          6           0        0.000000    1.205074    2.995750
     22          1           0        0.000000    2.140382    3.535750
     23          6           0        0.000000    1.205074    1.604250
     24          1           0        0.000000    2.140382    1.064250
 ---------------------------------------------------------------------

 SCF Done:  E(RB3LYP) =  -464.707671118     A.U. after   13 cycles

 The electronic state is 1-A1.
 Alpha  occ. eigenvalues --  -10.18430 -10.18408 -10.18397 -10.18348 -10.18336
 Alpha  occ. eigenvalues --  -10.18315 -10.17026 -10.16997 -10.16942 -10.16805
 Alpha  occ. eigenvalues --  -10.16802 -10.16321  -0.86504  -0.84815  -0.75551
 Alpha  occ. eigenvalues --   -0.75515  -0.74036  -0.73918  -0.61166  -0.61162
 Alpha  occ. eigenvalues --   -0.59707  -0.59672  -0.53411  -0.51950  -0.46945
 Alpha  occ. eigenvalues --   -0.45660  -0.45629  -0.44106  -0.43127  -0.43087
 Alpha  occ. eigenvalues --   -0.42136  -0.41706  -0.37444  -0.36337  -0.35349
 Alpha  occ. eigenvalues --   -0.35325  -0.33926  -0.33181  -0.26778  -0.26582
 Alpha  occ. eigenvalues --   -0.25004  -0.24605
 Alpha virt. eigenvalues --   -0.02075  -0.01918  -0.00258  -0.00223   0.03083
 Alpha virt. eigenvalues --    0.05324   0.05592   0.06838   0.08386   0.08606
 Alpha virt. eigenvalues --    0.09897   0.10487   0.12146   0.12493   0.12694

 Mulliken charges:
               1
     1  C   -0.090974
     2  H    0.106375
     3  C   -0.112635
     4  H    0.108871
     5  C   -0.112635
     6  H    0.108871
     7  C   -0.112635
     8  H    0.108871
     9  C   -0.112635
    10  H    0.108871
    11  C   -0.090974
    12  H    0.106375
    13  C   -0.016933
    14  C   -0.127841
    15  H    0.097721
    16  H    0.074026
    17  C   -0.102185
    18  H    0.101996
    19  C   -0.114153
    20  H    0.101935
    21  C   -0.102185
    22  H    0.101996
    23  C   -0.127841
    24  H    0.097721
 Sum of Mulliken charges =   0.00000

 Dipole moment (field-independent basis, Debye):
    X=              0.0000    Y=              0.0000    Z=             -0.6655  Tot=              0.6655
 Quadrupole moment (field-independent basis, Debye-Ang):
   XX=            -71.2340   YY=            -64.5465   ZZ=            -72.6662
   XY=              0.0000   XZ=              0.0000   YZ=              0.0000

 Normal termination of Gaussian 09 at Sun Mar 19 00:35:36 2017.
