 Gaussian 09, Revision D.01,
 Gaussian 09:  EM64L-G09RevD.01 24-Apr-2013

 --------------------
 #p m062x may-cc-pVQZ
 --------------------

 ---------------------
 benzene dimer 4.40425
 ---------------------
 Symbolic Z-matrix:
 Charge =  0 Multiplicity = 1

                         Standard orientation:
 ---------------------------------------------------------------------
 Center     Atomic      Atomic             Coordinates (Angstroms)
 Number     Number       Type             X           Y           Z
 ---------------------------------------------------------------------
      1          6           0       -1.391500    0.000000   -3.450000
      2          1           0       -2.471500    0.000000   -3.450000
      3          6           0       -0.695750    1.205074   -3.450000
      4          1           0       -1.235750    2.140382   -3.450000
      5          6           0       -0.695750   -1.205074   -3.450000
      6          1           0       -1.235750   -2.140382   -3.450000
      7          6           0        0.695750    1.205074   -3.450000
      8          1           0        1.235750    2.140382   -3.450000
      9          6           0        0.695750   -1.205074   -3.450000
     10          1           0        1.235750   -2.140382   -3.450000
     11          6           0        1.391500    0.000000   -3.450000
     12          1           0        2.471500    0.000000   -3.450000
     13          6           0        0.000000    0.000000    2.058500
     14          6           0        0.000000   -1.205074    2.754250
     15          1           0        0.000000   -2.140382    2.214250
     16          1           0        0.000000    0.000000    0.978500
     17          6           0        0.000000   -1.205074    4.145750
     18          1           0        0.000000   -2.140382    4.685750
     19          6           0        0.000000    0.000000    4.841500
     20          1           0        0.000000    0.000000    5.921500
     21          6           0        0.000000    1.205074    4.145750
     22          1           0        0.000000    2.140382    4.685750
     23          6           0        0.000000    1.205074    2.754250
     24          1           0        0.000000    2.140382    2.214250
 ---------------------------------------------------------------------

 SCF Done:  E(RM062X) =  -464.475859891     A.U. after   21 cycles

 The electronic state is 1-A1.
 Alpha  occ. eigenvalues --  -10.54490 -10.54454 -10.54450 -10.54371 -10.54367
 Alpha  occ. eigenvalues --  -10.54329 -10.54084 -10.54043 -10.54014 -10.53952
 Alpha  occ. eigenvalues --  -10.53952 -10.53876  -0.96247  -0.95823  -0.84570
 Alpha  occ. eigenvalues --   -0.84564  -0.84158  -0.84134  -0.68889  -0.68887
 Alpha  occ. eigenvalues --   -0.68477  -0.68461  -0.60416  -0.59998  -0.53689
 Alpha  occ. eigenvalues --   -0.53273  -0.51571  -0.51150  -0.49135  -0.49125
 Alpha  occ. eigenvalues --   -0.48734  -0.48687  -0.44306  -0.43878  -0.40546
 Alpha  occ. eigenvalues --   -0.40541  -0.40141  -0.40106  -0.31152  -0.31144
 Alpha  occ. eigenvalues --   -0.30738  -0.30711
 Alpha virt. eigenvalues --   -0.00398   0.00597   0.00759   0.01093   0.01470
 Alpha virt. eigenvalues --    0.01515   0.01912   0.01961   0.01986   0.02009
 Alpha virt. eigenvalues --    0.03040   0.03098   0.03566   0.03709   0.03760

 Mulliken charges:
               1
     1  C   -0.452493
     2  H    0.450696
     3  C   -0.455147
     4  H    0.454724
     5  C   -0.455147
     6  H    0.454724
     7  C   -0.455147
     8  H    0.454724
     9  C   -0.455147
    10  H    0.454724
    11  C   -0.452493
    12  H    0.450696
    13  C   -0.416582
    14  C   -0.479478
    15  H    0.446896
    16  H    0.448270
    17  C   -0.428547
    18  H    0.446773
    19  C   -0.435100
    20  H    0.437413
    21  C   -0.428547
    22  H    0.446773
    23  C   -0.479478
    24  H    0.446896
 Sum of Mulliken charges =   0.00000

 Dipole moment (field-independent basis, Debye):
    X=              0.0000    Y=              0.0000    Z=             -0.1594  Tot=              0.1594
 Quadrupole moment (field-independent basis, Debye-Ang):
   XX=            -71.9377   YY=            -64.0864   ZZ=            -72.2935
   XY=              0.0000   XZ=              0.0000   YZ=              0.0000

 Normal termination of Gaussian 09 at Sun Mar 19 03:53:14 2017.
