 Gaussian 09, Revision D.01,
 Gaussian 09:  EM64L-G09RevD.01 24-Apr-2013

 ---------------
 #p m062x 6-31g*
 ---------------

 ---------------------
 benzene dimer 2.40425
 ---------------------
 Symbolic Z-matrix:
 Charge =  0 Multiplicity = 1

                         Standard orientation:
 ---------------------------------------------------------------------
 Center     Atomic      Atomic             Coordinates (Angstroms)
 Number     Number       Type             X           Y           Z
 ---------------------------------------------------------------------
      1          6           0       -1.391500    0.000000   -2.450000
      2          1           0       -2.471500    0.000000   -2.450000
      3          6           0       -0.695750    1.205074   -2.450000
      4          1           0       -1.235750    2.140382   -2.450000
      5          6           0       -0.695750   -1.205074   -2.450000
      6          1           0       -1.235750   -2.140382   -2.450000
      7          6           0        0.695750    1.205074   -2.450000
      8          1           0        1.235750    2.140382   -2.450000
      9          6           0        0.695750   -1.205074   -2.450000
     10          1           0        1.235750   -2.140382   -2.450000
     11          6           0        1.391500    0.000000   -2.450000
     12          1           0        2.471500    0.000000   -2.450000
     13          6           0        0.000000    0.000000    1.058500
     14          6           0        0.000000   -1.205074    1.754250
     15          1           0        0.000000   -2.140382    1.214250
     16          1           0        0.000000    0.000000   -0.021500
     17          6           0        0.000000   -1.205074    3.145750
     18          1           0        0.000000   -2.140382    3.685750
     19          6           0        0.000000    0.000000    3.841500
     20          1           0        0.000000    0.000000    4.921500
     21          6           0        0.000000    1.205074    3.145750
     22          1           0        0.000000    2.140382    3.685750
     23          6           0        0.000000    1.205074    1.754250
     24          1           0        0.000000    2.140382    1.214250
 ---------------------------------------------------------------------

 SCF Done:  E(RM062X) =  -464.276977393     A.U. after   14 cycles

 The electronic state is 1-A1.
 Alpha  occ. eigenvalues --  -10.55212 -10.55182 -10.55166 -10.55104 -10.55085
 Alpha  occ. eigenvalues --  -10.55056 -10.53978 -10.53930 -10.53873 -10.53775
 Alpha  occ. eigenvalues --  -10.53768 -10.53403  -0.95867  -0.94473  -0.84217
 Alpha  occ. eigenvalues --   -0.84185  -0.82926  -0.82810  -0.68536  -0.68530
 Alpha  occ. eigenvalues --   -0.67266  -0.67208  -0.60102  -0.58826  -0.53504
 Alpha  occ. eigenvalues --   -0.52306  -0.50949  -0.49625  -0.48840  -0.48801
 Alpha  occ. eigenvalues --   -0.47791  -0.47620  -0.43414  -0.42330  -0.40201
 Alpha  occ. eigenvalues --   -0.40182  -0.38966  -0.38543  -0.30632  -0.30573
 Alpha  occ. eigenvalues --   -0.29223  -0.28985
 Alpha virt. eigenvalues --    0.03379   0.03419   0.04806   0.04834   0.13275
 Alpha virt. eigenvalues --    0.14665   0.18730   0.19232   0.20273   0.20476
 Alpha virt. eigenvalues --    0.21322   0.22662   0.22799   0.22817   0.23541

 Mulliken charges:
               1
     1  C   -0.160511
     2  H    0.167544
     3  C   -0.165475
     4  H    0.165989
     5  C   -0.165475
     6  H    0.165989
     7  C   -0.165475
     8  H    0.165989
     9  C   -0.165475
    10  H    0.165989
    11  C   -0.160511
    12  H    0.167544
    13  C   -0.137343
    14  C   -0.165913
    15  H    0.153141
    16  H    0.165010
    17  C   -0.163909
    18  H    0.157387
    19  C   -0.163002
    20  H    0.157801
    21  C   -0.163909
    22  H    0.157387
    23  C   -0.165913
    24  H    0.153141
 Sum of Mulliken charges =   0.00000

 Dipole moment (field-independent basis, Debye):
    X=              0.0000    Y=              0.0000    Z=             -0.5621  Tot=              0.5621
 Quadrupole moment (field-independent basis, Debye-Ang):
   XX=            -69.8380   YY=            -62.5687   ZZ=            -70.6025
   XY=              0.0000   XZ=              0.0000   YZ=              0.0000

 Normal termination of Gaussian 09 at Sun Mar 19 00:44:44 2017.
