 Gaussian 09, Revision D.01,
 Gaussian 09:  EM64L-G09RevD.01 24-Apr-2013

 ----------------------------------------------
 #p b3lyp empiricaldispersion=gd3bj may-cc-pVQZ
 ----------------------------------------------

 ---------------------
 benzene dimer 2.20425
 ---------------------
 Symbolic Z-matrix:
 Charge =  0 Multiplicity = 1

                         Standard orientation:
 ---------------------------------------------------------------------
 Center     Atomic      Atomic             Coordinates (Angstroms)
 Number     Number       Type             X           Y           Z
 ---------------------------------------------------------------------
      1          6           0       -1.391500    0.000000   -2.350000
      2          1           0       -2.471500    0.000000   -2.350000
      3          6           0       -0.695750    1.205074   -2.350000
      4          1           0       -1.235750    2.140382   -2.350000
      5          6           0       -0.695750   -1.205074   -2.350000
      6          1           0       -1.235750   -2.140382   -2.350000
      7          6           0        0.695750    1.205074   -2.350000
      8          1           0        1.235750    2.140382   -2.350000
      9          6           0        0.695750   -1.205074   -2.350000
     10          1           0        1.235750   -2.140382   -2.350000
     11          6           0        1.391500    0.000000   -2.350000
     12          1           0        2.471500    0.000000   -2.350000
     13          6           0        0.000000    0.000000    0.958500
     14          6           0        0.000000   -1.205074    1.654250
     15          1           0        0.000000   -2.140382    1.114250
     16          1           0        0.000000    0.000000   -0.121500
     17          6           0        0.000000   -1.205074    3.045750
     18          1           0        0.000000   -2.140382    3.585750
     19          6           0        0.000000    0.000000    3.741500
     20          1           0        0.000000    0.000000    4.821500
     21          6           0        0.000000    1.205074    3.045750
     22          1           0        0.000000    2.140382    3.585750
     23          6           0        0.000000    1.205074    1.654250
     24          1           0        0.000000    2.140382    1.114250
 ---------------------------------------------------------------------

 SCF Done:  E(RB3LYP) =  -464.742588006     A.U. after   10 cycles

 The electronic state is 1-A1.
 Alpha  occ. eigenvalues --  -10.18270 -10.18246 -10.18236 -10.18184 -10.18174
 Alpha  occ. eigenvalues --  -10.18149 -10.17029 -10.16999 -10.16942 -10.16829
 Alpha  occ. eigenvalues --  -10.16825 -10.16412  -0.86558  -0.85087  -0.75623
 Alpha  occ. eigenvalues --   -0.75590  -0.74286  -0.74179  -0.61255  -0.61251
 Alpha  occ. eigenvalues --   -0.59957  -0.59919  -0.53505  -0.52206  -0.47035
 Alpha  occ. eigenvalues --   -0.45865  -0.45749  -0.44399  -0.43230  -0.43192
 Alpha  occ. eigenvalues --   -0.42277  -0.41969  -0.37699  -0.36632  -0.35460
 Alpha  occ. eigenvalues --   -0.35436  -0.34194  -0.33590  -0.26860  -0.26696
 Alpha  occ. eigenvalues --   -0.25305  -0.24957
 Alpha virt. eigenvalues --   -0.02517  -0.02315  -0.01061  -0.00881  -0.00798
 Alpha virt. eigenvalues --    0.00260   0.00362   0.00886   0.01996   0.02264
 Alpha virt. eigenvalues --    0.02787   0.02940   0.03861   0.04065   0.04507

 Mulliken charges:
               1
     1  C   -0.171060
     2  H    0.144347
     3  C   -0.122769
     4  H    0.140446
     5  C   -0.122769
     6  H    0.140446
     7  C   -0.122769
     8  H    0.140446
     9  C   -0.122769
    10  H    0.140446
    11  C   -0.171060
    12  H    0.144347
    13  C   -0.412785
    14  C   -0.119213
    15  H    0.178282
    16  H    0.172864
    17  C   -0.115824
    18  H    0.157761
    19  C   -0.130593
    20  H    0.151220
    21  C   -0.115824
    22  H    0.157761
    23  C   -0.119213
    24  H    0.178282
 Sum of Mulliken charges =   0.00000

 Dipole moment (field-independent basis, Debye):
    X=              0.0000    Y=              0.0000    Z=             -0.6162  Tot=              0.6162
 Quadrupole moment (field-independent basis, Debye-Ang):
   XX=            -71.7916   YY=            -64.9961   ZZ=            -73.1961
   XY=              0.0000   XZ=              0.0000   YZ=              0.0000

 Normal termination of Gaussian 09 at Sun Mar 19 03:00:58 2017.
