 Gaussian 09, Revision D.01,
 Gaussian 09:  EM64L-G09RevD.01 24-Apr-2013

 ----------------------------------------------
 #p b3lyp empiricaldispersion=gd3bj jul-cc-pVDZ
 ----------------------------------------------

 ---------------------
 benzene dimer 2.20425
 ---------------------
 Symbolic Z-matrix:
 Charge =  0 Multiplicity = 1

                         Standard orientation:
 ---------------------------------------------------------------------
 Center     Atomic      Atomic             Coordinates (Angstroms)
 Number     Number       Type             X           Y           Z
 ---------------------------------------------------------------------
      1          6           0       -1.391500    0.000000   -2.350000
      2          1           0       -2.471500    0.000000   -2.350000
      3          6           0       -0.695750    1.205074   -2.350000
      4          1           0       -1.235750    2.140382   -2.350000
      5          6           0       -0.695750   -1.205074   -2.350000
      6          1           0       -1.235750   -2.140382   -2.350000
      7          6           0        0.695750    1.205074   -2.350000
      8          1           0        1.235750    2.140382   -2.350000
      9          6           0        0.695750   -1.205074   -2.350000
     10          1           0        1.235750   -2.140382   -2.350000
     11          6           0        1.391500    0.000000   -2.350000
     12          1           0        2.471500    0.000000   -2.350000
     13          6           0        0.000000    0.000000    0.958500
     14          6           0        0.000000   -1.205074    1.654250
     15          1           0        0.000000   -2.140382    1.114250
     16          1           0        0.000000    0.000000   -0.121500
     17          6           0        0.000000   -1.205074    3.045750
     18          1           0        0.000000   -2.140382    3.585750
     19          6           0        0.000000    0.000000    3.741500
     20          1           0        0.000000    0.000000    4.821500
     21          6           0        0.000000    1.205074    3.045750
     22          1           0        0.000000    2.140382    3.585750
     23          6           0        0.000000    1.205074    1.654250
     24          1           0        0.000000    2.140382    1.114250
 ---------------------------------------------------------------------

 SCF Done:  E(RB3LYP) =  -464.584455063     A.U. after   11 cycles

 The electronic state is 1-A1.
 Alpha  occ. eigenvalues --  -10.19774 -10.19758 -10.19748 -10.19702 -10.19691
 Alpha  occ. eigenvalues --  -10.19670 -10.18542 -10.18518 -10.18466 -10.18339
 Alpha  occ. eigenvalues --  -10.18337 -10.17895  -0.86800  -0.85356  -0.75838
 Alpha  occ. eigenvalues --   -0.75807  -0.74527  -0.74424  -0.61360  -0.61356
 Alpha  occ. eigenvalues --   -0.60086  -0.60052  -0.53456  -0.52185  -0.47036
 Alpha  occ. eigenvalues --   -0.45887  -0.45716  -0.44394  -0.43180  -0.43142
 Alpha  occ. eigenvalues --   -0.42259  -0.41944  -0.37632  -0.36587  -0.35347
 Alpha  occ. eigenvalues --   -0.35324  -0.34104  -0.33506  -0.26796  -0.26626
 Alpha  occ. eigenvalues --   -0.25264  -0.24915
 Alpha virt. eigenvalues --   -0.02420  -0.02215  -0.00808  -0.00715  -0.00324
 Alpha virt. eigenvalues --    0.01017   0.01030   0.01660   0.02881   0.03107
 Alpha virt. eigenvalues --    0.03792   0.03834   0.05225   0.05638   0.05658

 Mulliken charges:
               1
     1  C    0.250012
     2  H   -0.213867
     3  C    0.207152
     4  H   -0.215112
     5  C    0.207152
     6  H   -0.215112
     7  C    0.207152
     8  H   -0.215112
     9  C    0.207152
    10  H   -0.215112
    11  C    0.250012
    12  H   -0.213867
    13  C    0.756792
    14  C    0.210059
    15  H   -0.191206
    16  H   -0.524651
    17  C    0.059100
    18  H   -0.200043
    19  C    0.175139
    20  H   -0.203550
    21  C    0.059100
    22  H   -0.200043
    23  C    0.210059
    24  H   -0.191206
 Sum of Mulliken charges =   0.00000

 Dipole moment (field-independent basis, Debye):
    X=              0.0000    Y=              0.0000    Z=             -0.6113  Tot=              0.6113
 Quadrupole moment (field-independent basis, Debye-Ang):
   XX=            -71.9577   YY=            -65.3106   ZZ=            -73.3135
   XY=              0.0000   XZ=              0.0000   YZ=              0.0000

 1\1\GINC-HOLY2A14108\SP\RB3LYP\Jul-CC-pVDZ\C12H12\ROOT\19-Mar-2017\0\\
 #p b3lyp empiricaldispersion=gd3bj jul-cc-pVDZ\\benzene dimer 2.20425\
 \0,1\C,0,1.3915,0.,2.20425\H,0,2.4715,0.,2.20425\C,0,0.69575,1.2050743
 494,2.20425\H,0,1.23575,2.1403817855,2.20425\C,0,0.69575,-1.2050743494
 ,2.20425\H,0,1.23575,-2.1403817855,2.20425\C,0,-0.69575,1.2050743494,2
 .20425\H,0,-1.23575,2.1403817855,2.20425\C,0,-0.69575,-1.2050743494,2.
 20425\H,0,-1.23575,-2.1403817855,2.20425\C,0,-1.3915,0.,2.20425\H,0,-2
 .4715,0.,2.20425\C,0,0.,0.,-1.10425\C,0,0.,-1.2050743494,-1.8\H,0,0.,-

 Normal termination of Gaussian 09 at Sun Mar 19 00:44:06 2017.
