 Gaussian 09, Revision D.01,
 Gaussian 09:  EM64L-G09RevD.01 24-Apr-2013

 -------------
 #p mp2 6-31g*
 -------------

 ---------------------
 benzene dimer 2.00425
 ---------------------
 Symbolic Z-matrix:
 Charge =  0 Multiplicity = 1

                         Standard orientation:
 ---------------------------------------------------------------------
 Center     Atomic      Atomic             Coordinates (Angstroms)
 Number     Number       Type             X           Y           Z
 ---------------------------------------------------------------------
      1          6           0       -1.391500    0.000000   -2.250000
      2          1           0       -2.471500    0.000000   -2.250000
      3          6           0       -0.695750    1.205074   -2.250000
      4          1           0       -1.235750    2.140382   -2.250000
      5          6           0       -0.695750   -1.205074   -2.250000
      6          1           0       -1.235750   -2.140382   -2.250000
      7          6           0        0.695750    1.205074   -2.250000
      8          1           0        1.235750    2.140382   -2.250000
      9          6           0        0.695750   -1.205074   -2.250000
     10          1           0        1.235750   -2.140382   -2.250000
     11          6           0        1.391500    0.000000   -2.250000
     12          1           0        2.471500    0.000000   -2.250000
     13          6           0        0.000000    0.000000    0.858500
     14          6           0        0.000000   -1.205074    1.554250
     15          1           0        0.000000   -2.140382    1.014250
     16          1           0        0.000000    0.000000   -0.221500
     17          6           0        0.000000   -1.205074    2.945750
     18          1           0        0.000000   -2.140382    3.485750
     19          6           0        0.000000    0.000000    3.641500
     20          1           0        0.000000    0.000000    4.721500
     21          6           0        0.000000    1.205074    2.945750
     22          1           0        0.000000    2.140382    3.485750
     23          6           0        0.000000    1.205074    1.554250
     24          1           0        0.000000    2.140382    1.014250
 ---------------------------------------------------------------------

 SCF Done:  E(RHF) =  -461.396742773     A.U. after   12 cycles
 E2 =    -0.1520890770D+01 EUMP2 =    -0.46291763354270D+03

 The electronic state is 1-A1.
 Alpha  occ. eigenvalues --  -11.23887 -11.23837 -11.23820 -11.23715 -11.23696
 Alpha  occ. eigenvalues --  -11.23646 -11.22138 -11.22095 -11.21941 -11.21747
 Alpha  occ. eigenvalues --  -11.21738 -11.21078  -1.15499  -1.13291  -1.01777
 Alpha  occ. eigenvalues --   -1.01723  -0.99833  -0.99688  -0.82570  -0.82568
 Alpha  occ. eigenvalues --   -0.80716  -0.80712  -0.71292  -0.69427  -0.64578
 Alpha  occ. eigenvalues --   -0.62978  -0.61947  -0.60010  -0.59061  -0.59009
 Alpha  occ. eigenvalues --   -0.57800  -0.57239  -0.50528  -0.49615  -0.49584
 Alpha  occ. eigenvalues --   -0.48488  -0.47802  -0.46139  -0.34270  -0.33967
 Alpha  occ. eigenvalues --   -0.31985  -0.31296
 Alpha virt. eigenvalues --    0.13706   0.13889   0.16076   0.16101   0.22624
 Alpha virt. eigenvalues --    0.25165   0.27976   0.28934   0.30683   0.31028
 Alpha virt. eigenvalues --    0.32728   0.33244   0.33257   0.34253   0.34381

 Mulliken charges:
               1
     1  C   -0.197764
     2  H    0.207225
     3  C   -0.205617
     4  H    0.205506
     5  C   -0.205617
     6  H    0.205506
     7  C   -0.205617
     8  H    0.205506
     9  C   -0.205617
    10  H    0.205506
    11  C   -0.197764
    12  H    0.207225
    13  C   -0.169931
    14  C   -0.216355
    15  H    0.189725
    16  H    0.227032
    17  C   -0.198531
    18  H    0.193136
    19  C   -0.205092
    20  H    0.193565
    21  C   -0.198531
    22  H    0.193136
    23  C   -0.216355
    24  H    0.189725
 Sum of Mulliken charges =   0.00000

 Dipole moment (field-independent basis, Debye):
    X=              0.0000    Y=              0.0000    Z=             -0.8125  Tot=              0.8125
 Quadrupole moment (field-independent basis, Debye-Ang):
   XX=            -70.7501   YY=            -63.1024   ZZ=            -72.3545
   XY=              0.0000   XZ=              0.0000   YZ=              0.0000

 Normal termination of Gaussian 09 at Sun Mar 19 00:41:50 2017.
