 Gaussian 09, Revision D.01,
 Gaussian 09:  EM64L-G09RevD.01 24-Apr-2013

 ---------------
 #p b3lyp 6-31g*
 ---------------

 ---------------------
 benzene dimer 2.80425
 ---------------------
 Symbolic Z-matrix:
 Charge =  0 Multiplicity = 1

                         Standard orientation:
 ---------------------------------------------------------------------
 Center     Atomic      Atomic             Coordinates (Angstroms)
 Number     Number       Type             X           Y           Z
 ---------------------------------------------------------------------
      1          6           0       -1.391500    0.000000   -2.650000
      2          1           0       -2.471500    0.000000   -2.650000
      3          6           0       -0.695750    1.205074   -2.650000
      4          1           0       -1.235750    2.140382   -2.650000
      5          6           0       -0.695750   -1.205074   -2.650000
      6          1           0       -1.235750   -2.140382   -2.650000
      7          6           0        0.695750    1.205074   -2.650000
      8          1           0        1.235750    2.140382   -2.650000
      9          6           0        0.695750   -1.205074   -2.650000
     10          1           0        1.235750   -2.140382   -2.650000
     11          6           0        1.391500    0.000000   -2.650000
     12          1           0        2.471500    0.000000   -2.650000
     13          6           0        0.000000    0.000000    1.258500
     14          6           0        0.000000   -1.205074    1.954250
     15          1           0        0.000000   -2.140382    1.414250
     16          1           0        0.000000    0.000000    0.178500
     17          6           0        0.000000   -1.205074    3.345750
     18          1           0        0.000000   -2.140382    3.885750
     19          6           0        0.000000    0.000000    4.041500
     20          1           0        0.000000    0.000000    5.121500
     21          6           0        0.000000    1.205074    3.345750
     22          1           0        0.000000    2.140382    3.885750
     23          6           0        0.000000    1.205074    1.954250
     24          1           0        0.000000    2.140382    1.414250
 ---------------------------------------------------------------------

 SCF Done:  E(RB3LYP) =  -464.497601988     A.U. after   13 cycles

 The electronic state is 1-A1.
 Alpha  occ. eigenvalues --  -10.18937 -10.18914 -10.18904 -10.18857 -10.18845
 Alpha  occ. eigenvalues --  -10.18823 -10.17990 -10.17954 -10.17913 -10.17839
 Alpha  occ. eigenvalues --  -10.17834 -10.17586  -0.85300  -0.84256  -0.74545
 Alpha  occ. eigenvalues --   -0.74525  -0.73557  -0.73475  -0.60257  -0.60253
 Alpha  occ. eigenvalues --   -0.59281  -0.59227  -0.52464  -0.51471  -0.46342
 Alpha  occ. eigenvalues --   -0.45380  -0.44318  -0.43298  -0.42215  -0.42191
 Alpha  occ. eigenvalues --   -0.41275  -0.41204  -0.36533  -0.35492  -0.34422
 Alpha  occ. eigenvalues --   -0.34407  -0.33469  -0.33234  -0.25126  -0.25122
 Alpha  occ. eigenvalues --   -0.24116  -0.24003
 Alpha virt. eigenvalues --    0.00063   0.00075   0.01061   0.01118   0.08952
 Alpha virt. eigenvalues --    0.09955   0.14221   0.14416   0.15201   0.15406
 Alpha virt. eigenvalues --    0.16273   0.17264   0.18134   0.18142   0.18863

 Mulliken charges:
               1
     1  C   -0.127069
     2  H    0.131453
     3  C   -0.129857
     4  H    0.130400
     5  C   -0.129857
     6  H    0.130400
     7  C   -0.129857
     8  H    0.130400
     9  C   -0.129857
    10  H    0.130400
    11  C   -0.127069
    12  H    0.131453
    13  C   -0.137360
    14  C   -0.132130
    15  H    0.124161
    16  H    0.154911
    17  C   -0.128281
    18  H    0.124061
    19  C   -0.128476
    20  H    0.124367
    21  C   -0.128281
    22  H    0.124061
    23  C   -0.132130
    24  H    0.124161
 Sum of Mulliken charges =   0.00000

 Dipole moment (field-independent basis, Debye):
    X=              0.0000    Y=              0.0000    Z=             -0.4553  Tot=              0.4553
 Quadrupole moment (field-independent basis, Debye-Ang):
   XX=            -69.6755   YY=            -62.9373   ZZ=            -70.3095
   XY=              0.0000   XZ=              0.0000   YZ=              0.0000

 Normal termination of Gaussian 09 at Sun Mar 19 00:46:56 2017.
