 Gaussian 09, Revision D.01,
 Gaussian 09:  EM64L-G09RevD.01 24-Apr-2013

 ------------------------------------------
 #p b3lyp empiricaldispersion=gd3bj cc-pVQZ
 ------------------------------------------

 ---------------------
 benzene dimer 2.40425
 ---------------------
 Symbolic Z-matrix:
 Charge =  0 Multiplicity = 1

                         Standard orientation:
 ---------------------------------------------------------------------
 Center     Atomic      Atomic             Coordinates (Angstroms)
 Number     Number       Type             X           Y           Z
 ---------------------------------------------------------------------
      1          6           0       -1.391500    0.000000   -2.450000
      2          1           0       -2.471500    0.000000   -2.450000
      3          6           0       -0.695750    1.205074   -2.450000
      4          1           0       -1.235750    2.140382   -2.450000
      5          6           0       -0.695750   -1.205074   -2.450000
      6          1           0       -1.235750   -2.140382   -2.450000
      7          6           0        0.695750    1.205074   -2.450000
      8          1           0        1.235750    2.140382   -2.450000
      9          6           0        0.695750   -1.205074   -2.450000
     10          1           0        1.235750   -2.140382   -2.450000
     11          6           0        1.391500    0.000000   -2.450000
     12          1           0        2.471500    0.000000   -2.450000
     13          6           0        0.000000    0.000000    1.058500
     14          6           0        0.000000   -1.205074    1.754250
     15          1           0        0.000000   -2.140382    1.214250
     16          1           0        0.000000    0.000000   -0.021500
     17          6           0        0.000000   -1.205074    3.145750
     18          1           0        0.000000   -2.140382    3.685750
     19          6           0        0.000000    0.000000    3.841500
     20          1           0        0.000000    0.000000    4.921500
     21          6           0        0.000000    1.205074    3.145750
     22          1           0        0.000000    2.140382    3.685750
     23          6           0        0.000000    1.205074    1.754250
     24          1           0        0.000000    2.140382    1.214250
 ---------------------------------------------------------------------

 SCF Done:  E(RB3LYP) =  -464.742676185     A.U. after   13 cycles

 The electronic state is 1-A1.
 Alpha  occ. eigenvalues --  -10.18136 -10.18112 -10.18102 -10.18051 -10.18039
 Alpha  occ. eigenvalues --  -10.18016 -10.17017 -10.16984 -10.16934 -10.16840
 Alpha  occ. eigenvalues --  -10.16835 -10.16516  -0.86372  -0.85096  -0.75475
 Alpha  occ. eigenvalues --   -0.75447  -0.74289  -0.74195  -0.61128  -0.61123
 Alpha  occ. eigenvalues --   -0.59968  -0.59923  -0.53361  -0.52198  -0.46927
 Alpha  occ. eigenvalues --   -0.45840  -0.45614  -0.44409  -0.43096  -0.43063
 Alpha  occ. eigenvalues --   -0.42098  -0.41973  -0.37709  -0.36630  -0.35337
 Alpha  occ. eigenvalues --   -0.35316  -0.34207  -0.33795  -0.26618  -0.26525
 Alpha  occ. eigenvalues --   -0.25295  -0.25047
 Alpha virt. eigenvalues --   -0.02121  -0.02011  -0.00726  -0.00697   0.01854
 Alpha virt. eigenvalues --    0.03843   0.04023   0.05169   0.06478   0.06726
 Alpha virt. eigenvalues --    0.07894   0.08305   0.09877   0.10183   0.10858

 Mulliken charges:
               1
     1  C   -0.106554
     2  H    0.113545
     3  C   -0.120781
     4  H    0.118097
     5  C   -0.120781
     6  H    0.118097
     7  C   -0.120781
     8  H    0.118097
     9  C   -0.120781
    10  H    0.118097
    11  C   -0.106554
    12  H    0.113545
    13  C   -0.089891
    14  C   -0.135581
    15  H    0.111074
    16  H    0.140335
    17  C   -0.117372
    18  H    0.113024
    19  C   -0.109453
    20  H    0.113473
    21  C   -0.117372
    22  H    0.113024
    23  C   -0.135581
    24  H    0.111074
 Sum of Mulliken charges =   0.00000

 Dipole moment (field-independent basis, Debye):
    X=              0.0000    Y=              0.0000    Z=             -0.5354  Tot=              0.5354
 Quadrupole moment (field-independent basis, Debye-Ang):
   XX=            -71.6044   YY=            -64.7030   ZZ=            -72.6425
   XY=              0.0000   XZ=              0.0000   YZ=              0.0000

 Normal termination of Gaussian 09 at Sun Mar 19 02:09:15 2017.
