 Gaussian 09, Revision D.01,
 Gaussian 09:  EM64L-G09RevD.01 24-Apr-2013

 ------------------------------------------------
 #p pbe1pbe empiricaldispersion=gd3bj may-cc-pVQZ
 ------------------------------------------------

 ---------------------
 benzene dimer 3.10425
 ---------------------
 Symbolic Z-matrix:
 Charge =  0 Multiplicity = 1

                         Standard orientation:
 ---------------------------------------------------------------------
 Center     Atomic      Atomic             Coordinates (Angstroms)
 Number     Number       Type             X           Y           Z
 ---------------------------------------------------------------------
      1          6           0       -1.391500    0.000000   -2.800000
      2          1           0       -2.471500    0.000000   -2.800000
      3          6           0       -0.695750    1.205074   -2.800000
      4          1           0       -1.235750    2.140382   -2.800000
      5          6           0       -0.695750   -1.205074   -2.800000
      6          1           0       -1.235750   -2.140382   -2.800000
      7          6           0        0.695750    1.205074   -2.800000
      8          1           0        1.235750    2.140382   -2.800000
      9          6           0        0.695750   -1.205074   -2.800000
     10          1           0        1.235750   -2.140382   -2.800000
     11          6           0        1.391500    0.000000   -2.800000
     12          1           0        2.471500    0.000000   -2.800000
     13          6           0        0.000000    0.000000    1.408500
     14          6           0        0.000000   -1.205074    2.104250
     15          1           0        0.000000   -2.140382    1.564250
     16          1           0        0.000000    0.000000    0.328500
     17          6           0        0.000000   -1.205074    3.495750
     18          1           0        0.000000   -2.140382    4.035750
     19          6           0        0.000000    0.000000    4.191500
     20          1           0        0.000000    0.000000    5.271500
     21          6           0        0.000000    1.205074    3.495750
     22          1           0        0.000000    2.140382    4.035750
     23          6           0        0.000000    1.205074    2.104250
     24          1           0        0.000000    2.140382    1.564250
 ---------------------------------------------------------------------

 SCF Done:  E(RPBE1PBE) =  -464.135395099     A.U. after    9 cycles

 The electronic state is 1-A1.
 Alpha  occ. eigenvalues --  -10.23183 -10.23156 -10.23148 -10.23091 -10.23083
 Alpha  occ. eigenvalues --  -10.23055 -10.22434 -10.22396 -10.22352 -10.22302
 Alpha  occ. eigenvalues --  -10.22294 -10.22138  -0.88643  -0.87832  -0.77457
 Alpha  occ. eigenvalues --   -0.77441  -0.76680  -0.76622  -0.62683  -0.62679
 Alpha  occ. eigenvalues --   -0.61911  -0.61875  -0.54630  -0.53846  -0.48009
 Alpha  occ. eigenvalues --   -0.47240  -0.46676  -0.45882  -0.43951  -0.43930
 Alpha  occ. eigenvalues --   -0.43205  -0.43134  -0.38989  -0.38180  -0.35971
 Alpha  occ. eigenvalues --   -0.35957  -0.35219  -0.35094  -0.27222  -0.27221
 Alpha  occ. eigenvalues --   -0.26428  -0.26338
 Alpha virt. eigenvalues --   -0.01432  -0.01370  -0.00555  -0.00543  -0.00216
 Alpha virt. eigenvalues --    0.00993   0.01153   0.01692   0.02645   0.02834
 Alpha virt. eigenvalues --    0.03662   0.03730   0.04464   0.04683   0.04810

 Mulliken charges:
               1
     1  C   -0.195014
     2  H    0.175653
     3  C   -0.165512
     4  H    0.176415
     5  C   -0.165512
     6  H    0.176415
     7  C   -0.165512
     8  H    0.176415
     9  C   -0.165512
    10  H    0.176415
    11  C   -0.195014
    12  H    0.175653
    13  C   -0.213452
    14  C   -0.140333
    15  H    0.200831
    16  H    0.135097
    17  C   -0.187379
    18  H    0.182365
    19  C   -0.218912
    20  H    0.181410
    21  C   -0.187379
    22  H    0.182365
    23  C   -0.140333
    24  H    0.200831
 Sum of Mulliken charges =   0.00000

 Dipole moment (field-independent basis, Debye):
    X=              0.0000    Y=              0.0000    Z=             -0.3354  Tot=              0.3354
 Quadrupole moment (field-independent basis, Debye-Ang):
   XX=            -71.3652   YY=            -63.7272   ZZ=            -72.0101
   XY=              0.0000   XZ=              0.0000   YZ=              0.0000

 Normal termination of Gaussian 09 at Sun Mar 19 03:49:05 2017.
