 Gaussian 09, Revision D.01,
 Gaussian 09:  EM64L-G09RevD.01 24-Apr-2013

 ------------------------------------------------
 #p pbe1pbe empiricaldispersion=gd3bj may-cc-pVQZ
 ------------------------------------------------

 ---------------------
 benzene dimer 3.00425
 ---------------------
 Symbolic Z-matrix:
 Charge =  0 Multiplicity = 1

                         Standard orientation:
 ---------------------------------------------------------------------
 Center     Atomic      Atomic             Coordinates (Angstroms)
 Number     Number       Type             X           Y           Z
 ---------------------------------------------------------------------
      1          6           0       -1.391500    0.000000   -2.750000
      2          1           0       -2.471500    0.000000   -2.750000
      3          6           0       -0.695750    1.205074   -2.750000
      4          1           0       -1.235750    2.140382   -2.750000
      5          6           0       -0.695750   -1.205074   -2.750000
      6          1           0       -1.235750   -2.140382   -2.750000
      7          6           0        0.695750    1.205074   -2.750000
      8          1           0        1.235750    2.140382   -2.750000
      9          6           0        0.695750   -1.205074   -2.750000
     10          1           0        1.235750   -2.140382   -2.750000
     11          6           0        1.391500    0.000000   -2.750000
     12          1           0        2.471500    0.000000   -2.750000
     13          6           0        0.000000    0.000000    1.358500
     14          6           0        0.000000   -1.205074    2.054250
     15          1           0        0.000000   -2.140382    1.514250
     16          1           0        0.000000    0.000000    0.278500
     17          6           0        0.000000   -1.205074    3.445750
     18          1           0        0.000000   -2.140382    3.985750
     19          6           0        0.000000    0.000000    4.141500
     20          1           0        0.000000    0.000000    5.221500
     21          6           0        0.000000    1.205074    3.445750
     22          1           0        0.000000    2.140382    3.985750
     23          6           0        0.000000    1.205074    2.054250
     24          1           0        0.000000    2.140382    1.514250
 ---------------------------------------------------------------------

 SCF Done:  E(RPBE1PBE) =  -464.135674056     A.U. after    9 cycles

 The electronic state is 1-A1.
 Alpha  occ. eigenvalues --  -10.23202 -10.23175 -10.23167 -10.23110 -10.23101
 Alpha  occ. eigenvalues --  -10.23074 -10.22408 -10.22370 -10.22325 -10.22272
 Alpha  occ. eigenvalues --  -10.22265 -10.22094  -0.88665  -0.87803  -0.77477
 Alpha  occ. eigenvalues --   -0.77460  -0.76653  -0.76591  -0.62701  -0.62697
 Alpha  occ. eigenvalues --   -0.61883  -0.61845  -0.54648  -0.53818  -0.48025
 Alpha  occ. eigenvalues --   -0.47213  -0.46695  -0.45852  -0.43969  -0.43947
 Alpha  occ. eigenvalues --   -0.43180  -0.43115  -0.39005  -0.38153  -0.35989
 Alpha  occ. eigenvalues --   -0.35974  -0.35192  -0.35049  -0.27251  -0.27246
 Alpha  occ. eigenvalues --   -0.26402  -0.26300
 Alpha virt. eigenvalues --   -0.01460  -0.01390  -0.00524  -0.00508  -0.00214
 Alpha virt. eigenvalues --    0.01005   0.01150   0.01692   0.02665   0.02859
 Alpha virt. eigenvalues --    0.03649   0.03725   0.04477   0.04695   0.04854

 Mulliken charges:
               1
     1  C   -0.192900
     2  H    0.175206
     3  C   -0.165631
     4  H    0.175869
     5  C   -0.165631
     6  H    0.175869
     7  C   -0.165631
     8  H    0.175869
     9  C   -0.165631
    10  H    0.175869
    11  C   -0.192900
    12  H    0.175206
    13  C   -0.238166
    14  C   -0.132320
    15  H    0.202047
    16  H    0.135041
    17  C   -0.184612
    18  H    0.182420
    19  C   -0.217975
    20  H    0.180464
    21  C   -0.184612
    22  H    0.182420
    23  C   -0.132320
    24  H    0.202047
 Sum of Mulliken charges =   0.00000

 Dipole moment (field-independent basis, Debye):
    X=              0.0000    Y=              0.0000    Z=             -0.3595  Tot=              0.3595
 Quadrupole moment (field-independent basis, Debye-Ang):
   XX=            -71.3472   YY=            -63.7340   ZZ=            -72.0284
   XY=              0.0000   XZ=              0.0000   YZ=              0.0000

 Normal termination of Gaussian 09 at Sun Mar 19 04:18:13 2017.
