 Gaussian 09, Revision D.01,
 Gaussian 09:  EM64L-G09RevD.01 24-Apr-2013

 --------------------
 #p m062x may-cc-pVQZ
 --------------------

 ---------------------
 benzene dimer 2.20425
 ---------------------
 Symbolic Z-matrix:
 Charge =  0 Multiplicity = 1

                         Standard orientation:
 ---------------------------------------------------------------------
 Center     Atomic      Atomic             Coordinates (Angstroms)
 Number     Number       Type             X           Y           Z
 ---------------------------------------------------------------------
      1          6           0       -1.391500    0.000000   -2.350000
      2          1           0       -2.471500    0.000000   -2.350000
      3          6           0       -0.695750    1.205074   -2.350000
      4          1           0       -1.235750    2.140382   -2.350000
      5          6           0       -0.695750   -1.205074   -2.350000
      6          1           0       -1.235750   -2.140382   -2.350000
      7          6           0        0.695750    1.205074   -2.350000
      8          1           0        1.235750    2.140382   -2.350000
      9          6           0        0.695750   -1.205074   -2.350000
     10          1           0        1.235750   -2.140382   -2.350000
     11          6           0        1.391500    0.000000   -2.350000
     12          1           0        2.471500    0.000000   -2.350000
     13          6           0        0.000000    0.000000    0.958500
     14          6           0        0.000000   -1.205074    1.654250
     15          1           0        0.000000   -2.140382    1.114250
     16          1           0        0.000000    0.000000   -0.121500
     17          6           0        0.000000   -1.205074    3.045750
     18          1           0        0.000000   -2.140382    3.585750
     19          6           0        0.000000    0.000000    3.741500
     20          1           0        0.000000    0.000000    4.821500
     21          6           0        0.000000    1.205074    3.045750
     22          1           0        0.000000    2.140382    3.585750
     23          6           0        0.000000    1.205074    1.654250
     24          1           0        0.000000    2.140382    1.114250
 ---------------------------------------------------------------------

 SCF Done:  E(RM062X) =  -464.478123283     A.U. after   11 cycles

 The electronic state is 1-A1.
 Alpha  occ. eigenvalues --  -10.54886 -10.54854 -10.54840 -10.54770 -10.54755
 Alpha  occ. eigenvalues --  -10.54722 -10.53589 -10.53545 -10.53476 -10.53377
 Alpha  occ. eigenvalues --  -10.53370 -10.52974  -0.96761  -0.95240  -0.85007
 Alpha  occ. eigenvalues --   -0.84972  -0.83625  -0.83509  -0.69268  -0.69263
 Alpha  occ. eigenvalues --   -0.67921  -0.67884  -0.60832  -0.59486  -0.54018
 Alpha  occ. eigenvalues --   -0.52808  -0.51966  -0.50571  -0.49539  -0.49496
 Alpha  occ. eigenvalues --   -0.48680  -0.48231  -0.44213  -0.43339  -0.40918
 Alpha  occ. eigenvalues --   -0.40894  -0.39602  -0.39046  -0.31889  -0.31703
 Alpha  occ. eigenvalues --   -0.30239  -0.29860
 Alpha virt. eigenvalues --   -0.00334   0.00629   0.00768   0.00855   0.01065
 Alpha virt. eigenvalues --    0.01144   0.02281   0.02372   0.02517   0.02527
 Alpha virt. eigenvalues --    0.02869   0.03184   0.03916   0.04316   0.04439

 Mulliken charges:
               1
     1  C   -0.431416
     2  H    0.488540
     3  C   -0.511937
     4  H    0.484346
     5  C   -0.511937
     6  H    0.484346
     7  C   -0.511937
     8  H    0.484346
     9  C   -0.511937
    10  H    0.484346
    11  C   -0.431416
    12  H    0.488540
    13  C   -0.410956
    14  C   -0.469482
    15  H    0.499516
    16  H    0.268111
    17  C   -0.386930
    18  H    0.454272
    19  C   -0.484910
    20  H    0.429119
    21  C   -0.386930
    22  H    0.454272
    23  C   -0.469482
    24  H    0.499516
 Sum of Mulliken charges =   0.00000

 Dipole moment (field-independent basis, Debye):
    X=              0.0000    Y=              0.0000    Z=             -0.6241  Tot=              0.6241
 Quadrupole moment (field-independent basis, Debye-Ang):
   XX=            -71.5811   YY=            -64.2525   ZZ=            -72.5892
   XY=              0.0000   XZ=              0.0000   YZ=              0.0000

 Normal termination of Gaussian 09 at Sun Mar 19 02:36:22 2017.
