 Gaussian 09, Revision D.01,
 Gaussian 09:  EM64L-G09RevD.01 24-Apr-2013

 --------------------
 #p m062x may-cc-pVQZ
 --------------------

 ---------------------
 benzene dimer 3.90425
 ---------------------
 Symbolic Z-matrix:
 Charge =  0 Multiplicity = 1

                         Standard orientation:
 ---------------------------------------------------------------------
 Center     Atomic      Atomic             Coordinates (Angstroms)
 Number     Number       Type             X           Y           Z
 ---------------------------------------------------------------------
      1          6           0       -1.391500    0.000000   -3.200000
      2          1           0       -2.471500    0.000000   -3.200000
      3          6           0       -0.695750    1.205074   -3.200000
      4          1           0       -1.235750    2.140382   -3.200000
      5          6           0       -0.695750   -1.205074   -3.200000
      6          1           0       -1.235750   -2.140382   -3.200000
      7          6           0        0.695750    1.205074   -3.200000
      8          1           0        1.235750    2.140382   -3.200000
      9          6           0        0.695750   -1.205074   -3.200000
     10          1           0        1.235750   -2.140382   -3.200000
     11          6           0        1.391500    0.000000   -3.200000
     12          1           0        2.471500    0.000000   -3.200000
     13          6           0        0.000000    0.000000    1.808500
     14          6           0        0.000000   -1.205074    2.504250
     15          1           0        0.000000   -2.140382    1.964250
     16          1           0        0.000000    0.000000    0.728500
     17          6           0        0.000000   -1.205074    3.895750
     18          1           0        0.000000   -2.140382    4.435750
     19          6           0        0.000000    0.000000    4.591500
     20          1           0        0.000000    0.000000    5.671500
     21          6           0        0.000000    1.205074    3.895750
     22          1           0        0.000000    2.140382    4.435750
     23          6           0        0.000000    1.205074    2.504250
     24          1           0        0.000000    2.140382    1.964250
 ---------------------------------------------------------------------

 SCF Done:  E(RM062X) =  -464.476211531     A.U. after   12 cycles

 The electronic state is 1-A1.
 Alpha  occ. eigenvalues --  -10.54532 -10.54496 -10.54491 -10.54413 -10.54408
 Alpha  occ. eigenvalues --  -10.54370 -10.54028 -10.53986 -10.53948 -10.53892
 Alpha  occ. eigenvalues --  -10.53889 -10.53793  -0.96291  -0.95760  -0.84613
 Alpha  occ. eigenvalues --   -0.84605  -0.84099  -0.84065  -0.68929  -0.68926
 Alpha  occ. eigenvalues --   -0.68415  -0.68393  -0.60455  -0.59932  -0.53725
 Alpha  occ. eigenvalues --   -0.53206  -0.51612  -0.51086  -0.49175  -0.49162
 Alpha  occ. eigenvalues --   -0.48676  -0.48615  -0.44353  -0.43817  -0.40585
 Alpha  occ. eigenvalues --   -0.40578  -0.40081  -0.40030  -0.31201  -0.31191
 Alpha  occ. eigenvalues --   -0.30681  -0.30641
 Alpha virt. eigenvalues --   -0.00346   0.00568   0.00751   0.01096   0.01394
 Alpha virt. eigenvalues --    0.01463   0.01986   0.02024   0.02047   0.02104
 Alpha virt. eigenvalues --    0.03028   0.03083   0.03726   0.03740   0.03924

 Mulliken charges:
               1
     1  C   -0.464630
     2  H    0.456961
     3  C   -0.457358
     4  H    0.458777
     5  C   -0.457358
     6  H    0.458777
     7  C   -0.457358
     8  H    0.458777
     9  C   -0.457358
    10  H    0.458777
    11  C   -0.464630
    12  H    0.456961
    13  C   -0.431121
    14  C   -0.468827
    15  H    0.450327
    16  H    0.422974
    17  C   -0.420639
    18  H    0.449003
    19  C   -0.435652
    20  H    0.433733
    21  C   -0.420639
    22  H    0.449003
    23  C   -0.468827
    24  H    0.450327
 Sum of Mulliken charges =   0.00000

 Dipole moment (field-independent basis, Debye):
    X=              0.0000    Y=              0.0000    Z=             -0.2060  Tot=              0.2060
 Quadrupole moment (field-independent basis, Debye-Ang):
   XX=            -71.9145   YY=            -64.1097   ZZ=            -72.3329
   XY=              0.0000   XZ=              0.0000   YZ=              0.0000

 Normal termination of Gaussian 09 at Sun Mar 19 02:54:53 2017.
