 Gaussian 09, Revision D.01,
 Gaussian 09:  EM64L-G09RevD.01 24-Apr-2013

 ------------
 #p hf 6-31g*
 ------------

 ---------------------
 benzene dimer 4.40425
 ---------------------
 Symbolic Z-matrix:
 Charge =  0 Multiplicity = 1

                         Standard orientation:
 ---------------------------------------------------------------------
 Center     Atomic      Atomic             Coordinates (Angstroms)
 Number     Number       Type             X           Y           Z
 ---------------------------------------------------------------------
      1          6           0       -1.391500    0.000000   -3.450000
      2          1           0       -2.471500    0.000000   -3.450000
      3          6           0       -0.695750    1.205074   -3.450000
      4          1           0       -1.235750    2.140382   -3.450000
      5          6           0       -0.695750   -1.205074   -3.450000
      6          1           0       -1.235750   -2.140382   -3.450000
      7          6           0        0.695750    1.205074   -3.450000
      8          1           0        1.235750    2.140382   -3.450000
      9          6           0        0.695750   -1.205074   -3.450000
     10          1           0        1.235750   -2.140382   -3.450000
     11          6           0        1.391500    0.000000   -3.450000
     12          1           0        2.471500    0.000000   -3.450000
     13          6           0        0.000000    0.000000    2.058500
     14          6           0        0.000000   -1.205074    2.754250
     15          1           0        0.000000   -2.140382    2.214250
     16          1           0        0.000000    0.000000    0.978500
     17          6           0        0.000000   -1.205074    4.145750
     18          1           0        0.000000   -2.140382    4.685750
     19          6           0        0.000000    0.000000    4.841500
     20          1           0        0.000000    0.000000    5.921500
     21          6           0        0.000000    1.205074    4.145750
     22          1           0        0.000000    2.140382    4.685750
     23          6           0        0.000000    1.205074    2.754250
     24          1           0        0.000000    2.140382    2.214250
 ---------------------------------------------------------------------

 SCF Done:  E(RHF) =  -461.406128677     A.U. after   11 cycles

 The electronic state is 1-A1.
 Alpha  occ. eigenvalues --  -11.23326 -11.23271 -11.23268 -11.23149 -11.23146
 Alpha  occ. eigenvalues --  -11.23089 -11.22904 -11.22846 -11.22810 -11.22714
 Alpha  occ. eigenvalues --  -11.22713 -11.22620  -1.14640  -1.14198  -1.01090
 Alpha  occ. eigenvalues --   -1.01084  -1.00661  -1.00634  -0.82000  -0.81998
 Alpha  occ. eigenvalues --   -0.81570  -0.81555  -0.70604  -0.70167  -0.64095
 Alpha  occ. eigenvalues --   -0.63662  -0.61356  -0.60918  -0.58442  -0.58434
 Alpha  occ. eigenvalues --   -0.58025  -0.57976  -0.49760  -0.49314  -0.49061
 Alpha  occ. eigenvalues --   -0.49055  -0.48641  -0.48599  -0.33150  -0.33138
 Alpha  occ. eigenvalues --   -0.32723  -0.32685
 Alpha virt. eigenvalues --    0.14665   0.14672   0.15090   0.15121   0.23364
 Alpha virt. eigenvalues --    0.23793   0.29240   0.29264   0.29599   0.29749
 Alpha virt. eigenvalues --    0.33100   0.33115   0.33471   0.33543   0.33574

 Mulliken charges:
               1
     1  C   -0.200232
     2  H    0.201042
     3  C   -0.200824
     4  H    0.200491
     5  C   -0.200824
     6  H    0.200491
     7  C   -0.200824
     8  H    0.200491
     9  C   -0.200824
    10  H    0.200491
    11  C   -0.200232
    12  H    0.201042
    13  C   -0.203114
    14  C   -0.200673
    15  H    0.199426
    16  H    0.210358
    17  C   -0.199883
    18  H    0.198367
    19  C   -0.200411
    20  H    0.198405
    21  C   -0.199883
    22  H    0.198367
    23  C   -0.200673
    24  H    0.199426
 Sum of Mulliken charges =   0.00000

 Dipole moment (field-independent basis, Debye):
    X=              0.0000    Y=              0.0000    Z=             -0.1287  Tot=              0.1287
 Quadrupole moment (field-independent basis, Debye-Ang):
   XX=            -71.1665   YY=            -62.7950   ZZ=            -71.6559
   XY=              0.0000   XZ=              0.0000   YZ=              0.0000

 Normal termination of Gaussian 09 at Sun Mar 19 00:54:57 2017.
