 Gaussian 09, Revision D.01,
 Gaussian 09:  EM64L-G09RevD.01 24-Apr-2013

 ---------------
 #p b3lyp 6-31g*
 ---------------

 ---------------------
 benzene dimer 2.60425
 ---------------------
 Symbolic Z-matrix:
 Charge =  0 Multiplicity = 1

                         Standard orientation:
 ---------------------------------------------------------------------
 Center     Atomic      Atomic             Coordinates (Angstroms)
 Number     Number       Type             X           Y           Z
 ---------------------------------------------------------------------
      1          6           0       -1.391500    0.000000   -2.550000
      2          1           0       -2.471500    0.000000   -2.550000
      3          6           0       -0.695750    1.205074   -2.550000
      4          1           0       -1.235750    2.140382   -2.550000
      5          6           0       -0.695750   -1.205074   -2.550000
      6          1           0       -1.235750   -2.140382   -2.550000
      7          6           0        0.695750    1.205074   -2.550000
      8          1           0        1.235750    2.140382   -2.550000
      9          6           0        0.695750   -1.205074   -2.550000
     10          1           0        1.235750   -2.140382   -2.550000
     11          6           0        1.391500    0.000000   -2.550000
     12          1           0        2.471500    0.000000   -2.550000
     13          6           0        0.000000    0.000000    1.158500
     14          6           0        0.000000   -1.205074    1.854250
     15          1           0        0.000000   -2.140382    1.314250
     16          1           0        0.000000    0.000000    0.078500
     17          6           0        0.000000   -1.205074    3.245750
     18          1           0        0.000000   -2.140382    3.785750
     19          6           0        0.000000    0.000000    3.941500
     20          1           0        0.000000    0.000000    5.021500
     21          6           0        0.000000    1.205074    3.245750
     22          1           0        0.000000    2.140382    3.785750
     23          6           0        0.000000    1.205074    1.854250
     24          1           0        0.000000    2.140382    1.314250
 ---------------------------------------------------------------------

 SCF Done:  E(RB3LYP) =  -464.497365357     A.U. after   13 cycles

 The electronic state is 1-A1.
 Alpha  occ. eigenvalues --  -10.18999 -10.18977 -10.18964 -10.18919 -10.18905
 Alpha  occ. eigenvalues --  -10.18884 -10.17911 -10.17874 -10.17833 -10.17741
 Alpha  occ. eigenvalues --  -10.17736 -10.17424  -0.85380  -0.84164  -0.74614
 Alpha  occ. eigenvalues --   -0.74590  -0.73473  -0.73376  -0.60317  -0.60313
 Alpha  occ. eigenvalues --   -0.59193  -0.59134  -0.52527  -0.51388  -0.46393
 Alpha  occ. eigenvalues --   -0.45302  -0.44382  -0.43204  -0.42278  -0.42250
 Alpha  occ. eigenvalues --   -0.41195  -0.41171  -0.36571  -0.35407  -0.34480
 Alpha  occ. eigenvalues --   -0.34463  -0.33383  -0.33056  -0.25226  -0.25213
 Alpha  occ. eigenvalues --   -0.24037  -0.23882
 Alpha virt. eigenvalues --   -0.00020  -0.00003   0.01152   0.01212   0.08882
 Alpha virt. eigenvalues --    0.10117   0.14092   0.14380   0.15312   0.15680
 Alpha virt. eigenvalues --    0.16204   0.17352   0.18094   0.18119   0.18905

 Mulliken charges:
               1
     1  C   -0.126784
     2  H    0.132080
     3  C   -0.130161
     4  H    0.130944
     5  C   -0.130161
     6  H    0.130944
     7  C   -0.130161
     8  H    0.130944
     9  C   -0.130161
    10  H    0.130944
    11  C   -0.126784
    12  H    0.132080
    13  C   -0.133985
    14  C   -0.134164
    15  H    0.122785
    16  H    0.157877
    17  C   -0.128622
    18  H    0.123515
    19  C   -0.128486
    20  H    0.123842
    21  C   -0.128622
    22  H    0.123515
    23  C   -0.134164
    24  H    0.122785
 Sum of Mulliken charges =   0.00000

 Dipole moment (field-independent basis, Debye):
    X=              0.0000    Y=              0.0000    Z=             -0.5371  Tot=              0.5371
 Quadrupole moment (field-independent basis, Debye-Ang):
   XX=            -69.6297   YY=            -62.9684   ZZ=            -70.3480
   XY=              0.0000   XZ=              0.0000   YZ=              0.0000

 Normal termination of Gaussian 09 at Sun Mar 19 00:46:28 2017.
