 Gaussian 09, Revision D.01,
 Gaussian 09:  EM64L-G09RevD.01 24-Apr-2013

 ------------------------------------------
 #p b3lyp empiricaldispersion=gd3bj cc-pVQZ
 ------------------------------------------

 ---------------------
 benzene dimer 2.50425
 ---------------------
 Symbolic Z-matrix:
 Charge =  0 Multiplicity = 1

                         Standard orientation:
 ---------------------------------------------------------------------
 Center     Atomic      Atomic             Coordinates (Angstroms)
 Number     Number       Type             X           Y           Z
 ---------------------------------------------------------------------
      1          6           0       -1.391500    0.000000   -2.500000
      2          1           0       -2.471500    0.000000   -2.500000
      3          6           0       -0.695750    1.205074   -2.500000
      4          1           0       -1.235750    2.140382   -2.500000
      5          6           0       -0.695750   -1.205074   -2.500000
      6          1           0       -1.235750   -2.140382   -2.500000
      7          6           0        0.695750    1.205074   -2.500000
      8          1           0        1.235750    2.140382   -2.500000
      9          6           0        0.695750   -1.205074   -2.500000
     10          1           0        1.235750   -2.140382   -2.500000
     11          6           0        1.391500    0.000000   -2.500000
     12          1           0        2.471500    0.000000   -2.500000
     13          6           0        0.000000    0.000000    1.108500
     14          6           0        0.000000   -1.205074    1.804250
     15          1           0        0.000000   -2.140382    1.264250
     16          1           0        0.000000    0.000000    0.028500
     17          6           0        0.000000   -1.205074    3.195750
     18          1           0        0.000000   -2.140382    3.735750
     19          6           0        0.000000    0.000000    3.891500
     20          1           0        0.000000    0.000000    4.971500
     21          6           0        0.000000    1.205074    3.195750
     22          1           0        0.000000    2.140382    3.735750
     23          6           0        0.000000    1.205074    1.804250
     24          1           0        0.000000    2.140382    1.264250
 ---------------------------------------------------------------------

 SCF Done:  E(RB3LYP) =  -464.742713851     A.U. after   18 cycles

 The electronic state is 1-A1.
 Alpha  occ. eigenvalues --  -10.18108 -10.18084 -10.18074 -10.18023 -10.18011
 Alpha  occ. eigenvalues --  -10.17988 -10.17060 -10.17025 -10.16977 -10.16893
 Alpha  occ. eigenvalues --  -10.16888 -10.16605  -0.86327  -0.85146  -0.75439
 Alpha  occ. eigenvalues --   -0.75414  -0.74334  -0.74247  -0.61098  -0.61094
 Alpha  occ. eigenvalues --   -0.60013  -0.59969  -0.53327  -0.52237  -0.46902
 Alpha  occ. eigenvalues --   -0.45870  -0.45584  -0.44458  -0.43064  -0.43033
 Alpha  occ. eigenvalues --   -0.42079  -0.42015  -0.37724  -0.36674  -0.35308
 Alpha  occ. eigenvalues --   -0.35289  -0.34252  -0.33910  -0.26550  -0.26481
 Alpha  occ. eigenvalues --   -0.25337  -0.25125
 Alpha virt. eigenvalues --   -0.02065  -0.01973  -0.00781  -0.00759   0.01861
 Alpha virt. eigenvalues --    0.03801   0.04048   0.05185   0.06437   0.06693
 Alpha virt. eigenvalues --    0.07908   0.08259   0.09718   0.09967   0.10874

 Mulliken charges:
               1
     1  C   -0.107881
     2  H    0.113740
     3  C   -0.119845
     4  H    0.117781
     5  C   -0.119845
     6  H    0.117781
     7  C   -0.119845
     8  H    0.117781
     9  C   -0.119845
    10  H    0.117781
    11  C   -0.107881
    12  H    0.113740
    13  C   -0.081178
    14  C   -0.136164
    15  H    0.112057
    16  H    0.130763
    17  C   -0.118069
    18  H    0.113284
    19  C   -0.108936
    20  H    0.113675
    21  C   -0.118069
    22  H    0.113284
    23  C   -0.136164
    24  H    0.112057
 Sum of Mulliken charges =   0.00000

 Dipole moment (field-independent basis, Debye):
    X=              0.0000    Y=              0.0000    Z=             -0.4975  Tot=              0.4975
 Quadrupole moment (field-independent basis, Debye-Ang):
   XX=            -71.6373   YY=            -64.6846   ZZ=            -72.5834
   XY=              0.0000   XZ=              0.0000   YZ=              0.0000

 Normal termination of Gaussian 09 at Sun Mar 19 02:12:53 2017.
