 Gaussian 09, Revision D.01,
 Gaussian 09:  EM64L-G09RevD.01 24-Apr-2013

 ---------------
 #p m062x 6-31g*
 ---------------

 ---------------
 benzene monomer
 ---------------
 Symbolic Z-matrix:
 Charge =  0 Multiplicity = 1

                         Standard orientation:
 ---------------------------------------------------------------------
 Center     Atomic      Atomic             Coordinates (Angstroms)
 Number     Number       Type             X           Y           Z
 ---------------------------------------------------------------------
      1          6           0        0.000000    1.391500    0.000000
      2          1           0        0.000000    2.471500    0.000000
      3          6           0        1.205074    0.695750    0.000000
      4          1           0        2.140382    1.235750    0.000000
      5          6           0       -1.205074    0.695750    0.000000
      6          1           0       -2.140382    1.235750    0.000000
      7          6           0        1.205074   -0.695750    0.000000
      8          1           0        2.140382   -1.235750    0.000000
      9          6           0       -1.205074   -0.695750    0.000000
     10          1           0       -2.140382   -1.235750    0.000000
     11          6           0        0.000000   -1.391500    0.000000
     12          1           0        0.000000   -2.471500    0.000000
 ---------------------------------------------------------------------

 SCF Done:  E(RM062X) =  -232.136317363     A.U. after   11 cycles

 The electronic state is 1-A1G.
 Alpha  occ. eigenvalues --  -10.54674 -10.54638 -10.54638 -10.54559 -10.54559
 Alpha  occ. eigenvalues --  -10.54522  -0.95259  -0.83660  -0.83660  -0.68032
 Alpha  occ. eigenvalues --   -0.68032  -0.59593  -0.53060  -0.50421  -0.48324
 Alpha  occ. eigenvalues --   -0.48324  -0.43079  -0.39709  -0.39709  -0.29923
 Alpha  occ. eigenvalues --   -0.29923
 Alpha virt. eigenvalues --    0.04043   0.04043   0.13791   0.19530   0.19530
 Alpha virt. eigenvalues --    0.21915   0.23166   0.23166   0.24305   0.34825
 Alpha virt. eigenvalues --    0.34825   0.36390   0.36390   0.51687   0.57941

 Mulliken charges:
               1
     1  C   -0.162044
     2  H    0.162044
     3  C   -0.162044
     4  H    0.162044
     5  C   -0.162044
     6  H    0.162044
     7  C   -0.162044
     8  H    0.162044
     9  C   -0.162044
    10  H    0.162044
    11  C   -0.162044
    12  H    0.162044
 Sum of Mulliken charges =   0.00000

 Dipole moment (field-independent basis, Debye):
    X=              0.0000    Y=              0.0000    Z=              0.0000  Tot=              0.0000
 Quadrupole moment (field-independent basis, Debye-Ang):
   XX=            -31.1807   YY=            -31.1807   ZZ=            -38.9741
   XY=              0.0000   XZ=              0.0000   YZ=              0.0000

 Normal termination of Gaussian 09 at Sun Mar 19 01:03:01 2017.
