 Gaussian 09, Revision D.01,
 Gaussian 09:  EM64L-G09RevD.01 24-Apr-2013

 ------------------------------------------
 #p b3lyp empiricaldispersion=gd3bj cc-pVTZ
 ------------------------------------------

 ---------------------
 benzene dimer 2.80425
 ---------------------
 Symbolic Z-matrix:
 Charge =  0 Multiplicity = 1

                         Standard orientation:
 ---------------------------------------------------------------------
 Center     Atomic      Atomic             Coordinates (Angstroms)
 Number     Number       Type             X           Y           Z
 ---------------------------------------------------------------------
      1          6           0       -1.391500    0.000000   -2.650000
      2          1           0       -2.471500    0.000000   -2.650000
      3          6           0       -0.695750    1.205074   -2.650000
      4          1           0       -1.235750    2.140382   -2.650000
      5          6           0       -0.695750   -1.205074   -2.650000
      6          1           0       -1.235750   -2.140382   -2.650000
      7          6           0        0.695750    1.205074   -2.650000
      8          1           0        1.235750    2.140382   -2.650000
      9          6           0        0.695750   -1.205074   -2.650000
     10          1           0        1.235750   -2.140382   -2.650000
     11          6           0        1.391500    0.000000   -2.650000
     12          1           0        2.471500    0.000000   -2.650000
     13          6           0        0.000000    0.000000    1.258500
     14          6           0        0.000000   -1.205074    1.954250
     15          1           0        0.000000   -2.140382    1.414250
     16          1           0        0.000000    0.000000    0.178500
     17          6           0        0.000000   -1.205074    3.345750
     18          1           0        0.000000   -2.140382    3.885750
     19          6           0        0.000000    0.000000    4.041500
     20          1           0        0.000000    0.000000    5.121500
     21          6           0        0.000000    1.205074    3.345750
     22          1           0        0.000000    2.140382    3.885750
     23          6           0        0.000000    1.205074    1.954250
     24          1           0        0.000000    2.140382    1.414250
 ---------------------------------------------------------------------

 SCF Done:  E(RB3LYP) =  -464.708825299     A.U. after   12 cycles

 The electronic state is 1-A1.
 Alpha  occ. eigenvalues --  -10.18218 -10.18196 -10.18186 -10.18136 -10.18125
 Alpha  occ. eigenvalues --  -10.18104 -10.17331 -10.17296 -10.17254 -10.17189
 Alpha  occ. eigenvalues --  -10.17182 -10.16977  -0.86150  -0.85176  -0.75284
 Alpha  occ. eigenvalues --   -0.75264  -0.74360  -0.74288  -0.60947  -0.60943
 Alpha  occ. eigenvalues --   -0.60035  -0.59992  -0.53144  -0.52222  -0.46758
 Alpha  occ. eigenvalues --   -0.45867  -0.45402  -0.44457  -0.42886  -0.42861
 Alpha  occ. eigenvalues --   -0.42005  -0.41964  -0.37596  -0.36652  -0.35136
 Alpha  occ. eigenvalues --   -0.35120  -0.34248  -0.34042  -0.26271  -0.26252
 Alpha  occ. eigenvalues --   -0.25301  -0.25170
 Alpha virt. eigenvalues --   -0.01658  -0.01628  -0.00658  -0.00649   0.03185
 Alpha virt. eigenvalues --    0.04974   0.05871   0.06940   0.08049   0.08245
 Alpha virt. eigenvalues --    0.09998   0.10100   0.11049   0.11258   0.12610

 Mulliken charges:
               1
     1  C   -0.102509
     2  H    0.107099
     3  C   -0.109536
     4  H    0.107793
     5  C   -0.109536
     6  H    0.107793
     7  C   -0.109536
     8  H    0.107793
     9  C   -0.109536
    10  H    0.107793
    11  C   -0.102509
    12  H    0.107099
    13  C   -0.076145
    14  C   -0.130365
    15  H    0.103603
    16  H    0.133120
    17  C   -0.101230
    18  H    0.103267
    19  C   -0.113250
    20  H    0.103516
    21  C   -0.101230
    22  H    0.103267
    23  C   -0.130365
    24  H    0.103603
 Sum of Mulliken charges =   0.00000

 Dipole moment (field-independent basis, Debye):
    X=              0.0000    Y=              0.0000    Z=             -0.3947  Tot=              0.3947
 Quadrupole moment (field-independent basis, Debye-Ang):
   XX=            -71.4625   YY=            -64.4005   ZZ=            -72.2528
   XY=              0.0000   XZ=              0.0000   YZ=              0.0000

 Normal termination of Gaussian 09 at Sun Mar 19 00:31:30 2017.
