 Gaussian 09, Revision D.01,
 Gaussian 09:  EM64L-G09RevD.01 24-Apr-2013

 ------------------------------------------------
 #p pbe1pbe empiricaldispersion=gd3bj may-cc-pVQZ
 ------------------------------------------------

 ---------------------
 benzene dimer 2.70425
 ---------------------
 Symbolic Z-matrix:
 Charge =  0 Multiplicity = 1

                         Standard orientation:
 ---------------------------------------------------------------------
 Center     Atomic      Atomic             Coordinates (Angstroms)
 Number     Number       Type             X           Y           Z
 ---------------------------------------------------------------------
      1          6           0       -1.391500    0.000000   -2.600000
      2          1           0       -2.471500    0.000000   -2.600000
      3          6           0       -0.695750    1.205074   -2.600000
      4          1           0       -1.235750    2.140382   -2.600000
      5          6           0       -0.695750   -1.205074   -2.600000
      6          1           0       -1.235750   -2.140382   -2.600000
      7          6           0        0.695750    1.205074   -2.600000
      8          1           0        1.235750    2.140382   -2.600000
      9          6           0        0.695750   -1.205074   -2.600000
     10          1           0        1.235750   -2.140382   -2.600000
     11          6           0        1.391500    0.000000   -2.600000
     12          1           0        2.471500    0.000000   -2.600000
     13          6           0        0.000000    0.000000    1.208500
     14          6           0        0.000000   -1.205074    1.904250
     15          1           0        0.000000   -2.140382    1.364250
     16          1           0        0.000000    0.000000    0.128500
     17          6           0        0.000000   -1.205074    3.295750
     18          1           0        0.000000   -2.140382    3.835750
     19          6           0        0.000000    0.000000    3.991500
     20          1           0        0.000000    0.000000    5.071500
     21          6           0        0.000000    1.205074    3.295750
     22          1           0        0.000000    2.140382    3.835750
     23          6           0        0.000000    1.205074    1.904250
     24          1           0        0.000000    2.140382    1.364250
 ---------------------------------------------------------------------

 SCF Done:  E(RPBE1PBE) =  -464.136447702     A.U. after    9 cycles

 The electronic state is 1-A1.
 Alpha  occ. eigenvalues --  -10.23269 -10.23243 -10.23233 -10.23178 -10.23168
 Alpha  occ. eigenvalues --  -10.23141 -10.22317 -10.22279 -10.22231 -10.22163
 Alpha  occ. eigenvalues --  -10.22156 -10.21929  -0.88749  -0.87698  -0.77551
 Alpha  occ. eigenvalues --   -0.77529  -0.76556  -0.76477  -0.62765  -0.62761
 Alpha  occ. eigenvalues --   -0.61782  -0.61737  -0.54715  -0.53721  -0.48081
 Alpha  occ. eigenvalues --   -0.47123  -0.46762  -0.45746  -0.44037  -0.44009
 Alpha  occ. eigenvalues --   -0.43088  -0.43079  -0.39038  -0.38055  -0.36052
 Alpha  occ. eigenvalues --   -0.36033  -0.35095  -0.34865  -0.27368  -0.27336
 Alpha  occ. eigenvalues --   -0.26311  -0.26155
 Alpha virt. eigenvalues --   -0.01566  -0.01463  -0.00411  -0.00380  -0.00214
 Alpha virt. eigenvalues --    0.01048   0.01145   0.01692   0.02727   0.02925
 Alpha virt. eigenvalues --    0.03606   0.03712   0.04519   0.04743   0.04993

 Mulliken charges:
               1
     1  C   -0.193647
     2  H    0.175928
     3  C   -0.162058
     4  H    0.173543
     5  C   -0.162058
     6  H    0.173543
     7  C   -0.162058
     8  H    0.173543
     9  C   -0.162058
    10  H    0.173543
    11  C   -0.193647
    12  H    0.175928
    13  C   -0.313021
    14  C   -0.110650
    15  H    0.205554
    16  H    0.137383
    17  C   -0.176498
    18  H    0.183017
    19  C   -0.215603
    20  H    0.177894
    21  C   -0.176498
    22  H    0.183017
    23  C   -0.110650
    24  H    0.205554
 Sum of Mulliken charges =   0.00000

 Dipole moment (field-independent basis, Debye):
    X=              0.0000    Y=              0.0000    Z=             -0.4471  Tot=              0.4471
 Quadrupole moment (field-independent basis, Debye-Ang):
   XX=            -71.2771   YY=            -63.7580   ZZ=            -72.1050
   XY=              0.0000   XZ=              0.0000   YZ=              0.0000

 Normal termination of Gaussian 09 at Sun Mar 19 03:56:00 2017.
