 Gaussian 09, Revision D.01,
 Gaussian 09:  EM64L-G09RevD.01 24-Apr-2013

 ------------------------------------------
 #p b3lyp empiricaldispersion=gd3bj cc-pVTZ
 ------------------------------------------

 ---------------------
 benzene dimer 2.50425
 ---------------------
 Symbolic Z-matrix:
 Charge =  0 Multiplicity = 1

                         Standard orientation:
 ---------------------------------------------------------------------
 Center     Atomic      Atomic             Coordinates (Angstroms)
 Number     Number       Type             X           Y           Z
 ---------------------------------------------------------------------
      1          6           0       -1.391500    0.000000   -2.500000
      2          1           0       -2.471500    0.000000   -2.500000
      3          6           0       -0.695750    1.205074   -2.500000
      4          1           0       -1.235750    2.140382   -2.500000
      5          6           0       -0.695750   -1.205074   -2.500000
      6          1           0       -1.235750   -2.140382   -2.500000
      7          6           0        0.695750    1.205074   -2.500000
      8          1           0        1.235750    2.140382   -2.500000
      9          6           0        0.695750   -1.205074   -2.500000
     10          1           0        1.235750   -2.140382   -2.500000
     11          6           0        1.391500    0.000000   -2.500000
     12          1           0        2.471500    0.000000   -2.500000
     13          6           0        0.000000    0.000000    1.108500
     14          6           0        0.000000   -1.205074    1.804250
     15          1           0        0.000000   -2.140382    1.264250
     16          1           0        0.000000    0.000000    0.028500
     17          6           0        0.000000   -1.205074    3.195750
     18          1           0        0.000000   -2.140382    3.735750
     19          6           0        0.000000    0.000000    3.891500
     20          1           0        0.000000    0.000000    4.971500
     21          6           0        0.000000    1.205074    3.195750
     22          1           0        0.000000    2.140382    3.735750
     23          6           0        0.000000    1.205074    1.804250
     24          1           0        0.000000    2.140382    1.264250
 ---------------------------------------------------------------------

 SCF Done:  E(RB3LYP) =  -464.709469367     A.U. after   13 cycles

 The electronic state is 1-A1.
 Alpha  occ. eigenvalues --  -10.18298 -10.18277 -10.18266 -10.18217 -10.18204
 Alpha  occ. eigenvalues --  -10.18184 -10.17225 -10.17190 -10.17145 -10.17057
 Alpha  occ. eigenvalues --  -10.17052 -10.16768  -0.86261  -0.85052  -0.75377
 Alpha  occ. eigenvalues --   -0.75351  -0.74247  -0.74157  -0.61026  -0.61022
 Alpha  occ. eigenvalues --   -0.59918  -0.59872  -0.53229  -0.52116  -0.46826
 Alpha  occ. eigenvalues --   -0.45774  -0.45485  -0.44334  -0.42970  -0.42939
 Alpha  occ. eigenvalues --   -0.41961  -0.41899  -0.37614  -0.36539  -0.35213
 Alpha  occ. eigenvalues --   -0.35194  -0.34135  -0.33789  -0.26431  -0.26367
 Alpha  occ. eigenvalues --   -0.25196  -0.24988
 Alpha virt. eigenvalues --   -0.01797  -0.01731  -0.00519  -0.00513   0.03148
 Alpha virt. eigenvalues --    0.05115   0.05721   0.06907   0.08189   0.08469
 Alpha virt. eigenvalues --    0.09961   0.10247   0.11427   0.11835   0.12570

 Mulliken charges:
               1
     1  C   -0.098611
     2  H    0.106911
     3  C   -0.110975
     4  H    0.108066
     5  C   -0.110975
     6  H    0.108066
     7  C   -0.110975
     8  H    0.108066
     9  C   -0.110975
    10  H    0.108066
    11  C   -0.098611
    12  H    0.106911
    13  C   -0.055503
    14  C   -0.131179
    15  H    0.101910
    16  H    0.117325
    17  C   -0.101590
    18  H    0.102783
    19  C   -0.113676
    20  H    0.103041
    21  C   -0.101590
    22  H    0.102783
    23  C   -0.131179
    24  H    0.101910
 Sum of Mulliken charges =   0.00000

 Dipole moment (field-independent basis, Debye):
    X=              0.0000    Y=              0.0000    Z=             -0.4921  Tot=              0.4921
 Quadrupole moment (field-independent basis, Debye-Ang):
   XX=            -71.3899   YY=            -64.4535   ZZ=            -72.3728
   XY=              0.0000   XZ=              0.0000   YZ=              0.0000

 Normal termination of Gaussian 09 at Sun Mar 19 00:33:38 2017.
