 Gaussian 09, Revision D.01,
 Gaussian 09:  EM64L-G09RevD.01 24-Apr-2013

 ----------------------------------------------
 #p b3lyp empiricaldispersion=gd3bj may-cc-pVQZ
 ----------------------------------------------

 ---------------
 benzene monomer
 ---------------
 Symbolic Z-matrix:
 Charge =  0 Multiplicity = 1

                         Standard orientation:
 ---------------------------------------------------------------------
 Center     Atomic      Atomic             Coordinates (Angstroms)
 Number     Number       Type             X           Y           Z
 ---------------------------------------------------------------------
      1          6           0        0.000000    1.391500    0.000000
      2          1           0        0.000000    2.471500    0.000000
      3          6           0        1.205074    0.695750    0.000000
      4          1           0        2.140382    1.235750    0.000000
      5          6           0       -1.205074    0.695750    0.000000
      6          1           0       -2.140382    1.235750    0.000000
      7          6           0        1.205074   -0.695750    0.000000
      8          1           0        2.140382   -1.235750    0.000000
      9          6           0       -1.205074   -0.695750    0.000000
     10          1           0       -2.140382   -1.235750    0.000000
     11          6           0        0.000000   -1.391500    0.000000
     12          1           0        0.000000   -2.471500    0.000000
 ---------------------------------------------------------------------

 SCF Done:  E(RB3LYP) =  -232.369491887     A.U. after    8 cycles

 The electronic state is 1-A1G.
 Alpha  occ. eigenvalues --  -10.17785 -10.17757 -10.17757 -10.17696 -10.17696
 Alpha  occ. eigenvalues --  -10.17667  -0.85938  -0.75077  -0.75077  -0.60770
 Alpha  occ. eigenvalues --   -0.60770  -0.52995  -0.46602  -0.45251  -0.42723
 Alpha  occ. eigenvalues --   -0.42723  -0.37428  -0.34984  -0.34984  -0.26054
 Alpha  occ. eigenvalues --   -0.26054
 Alpha virt. eigenvalues --   -0.01774  -0.01774  -0.00392   0.00999   0.00999
 Alpha virt. eigenvalues --    0.03100   0.03100   0.03756   0.05430   0.05819
 Alpha virt. eigenvalues --    0.05819   0.05910   0.07641   0.09592   0.09592

 Mulliken charges:
               1
     1  C   -0.161078
     2  H    0.161078
     3  C   -0.161078
     4  H    0.161078
     5  C   -0.161078
     6  H    0.161078
     7  C   -0.161078
     8  H    0.161078
     9  C   -0.161078
    10  H    0.161078
    11  C   -0.161078
    12  H    0.161078
 Sum of Mulliken charges =   0.00000

 Dipole moment (field-independent basis, Debye):
    X=              0.0000    Y=              0.0000    Z=              0.0000  Tot=              0.0000
 Quadrupole moment (field-independent basis, Debye-Ang):
   XX=            -32.4019   YY=            -32.4019   ZZ=            -39.8351
   XY=              0.0000   XZ=              0.0000   YZ=              0.0000

 Normal termination of Gaussian 09 at Sun Mar 19 01:57:40 2017.
