 Gaussian 09, Revision D.01,
 Gaussian 09:  EM64L-G09RevD.01 24-Apr-2013

 ---------------
 #p m062x 6-31g*
 ---------------

 ---------------------
 benzene dimer 2.70425
 ---------------------
 Symbolic Z-matrix:
 Charge =  0 Multiplicity = 1

                         Standard orientation:
 ---------------------------------------------------------------------
 Center     Atomic      Atomic             Coordinates (Angstroms)
 Number     Number       Type             X           Y           Z
 ---------------------------------------------------------------------
      1          6           0       -1.391500    0.000000   -2.600000
      2          1           0       -2.471500    0.000000   -2.600000
      3          6           0       -0.695750    1.205074   -2.600000
      4          1           0       -1.235750    2.140382   -2.600000
      5          6           0       -0.695750   -1.205074   -2.600000
      6          1           0       -1.235750   -2.140382   -2.600000
      7          6           0        0.695750    1.205074   -2.600000
      8          1           0        1.235750    2.140382   -2.600000
      9          6           0        0.695750   -1.205074   -2.600000
     10          1           0        1.235750   -2.140382   -2.600000
     11          6           0        1.391500    0.000000   -2.600000
     12          1           0        2.471500    0.000000   -2.600000
     13          6           0        0.000000    0.000000    1.208500
     14          6           0        0.000000   -1.205074    1.904250
     15          1           0        0.000000   -2.140382    1.364250
     16          1           0        0.000000    0.000000    0.128500
     17          6           0        0.000000   -1.205074    3.295750
     18          1           0        0.000000   -2.140382    3.835750
     19          6           0        0.000000    0.000000    3.991500
     20          1           0        0.000000    0.000000    5.071500
     21          6           0        0.000000    1.205074    3.295750
     22          1           0        0.000000    2.140382    3.835750
     23          6           0        0.000000    1.205074    1.904250
     24          1           0        0.000000    2.140382    1.364250
 ---------------------------------------------------------------------

 SCF Done:  E(RM062X) =  -464.276233630     A.U. after   14 cycles

 The electronic state is 1-A1.
 Alpha  occ. eigenvalues --  -10.55103 -10.55073 -10.55060 -10.54994 -10.54979
 Alpha  occ. eigenvalues --  -10.54949 -10.54101 -10.54054 -10.53999 -10.53924
 Alpha  occ. eigenvalues --  -10.53916 -10.53659  -0.95721  -0.94621  -0.84098
 Alpha  occ. eigenvalues --   -0.84074  -0.83059  -0.82968  -0.68435  -0.68430
 Alpha  occ. eigenvalues --   -0.67406  -0.67351  -0.59990  -0.58947  -0.53419
 Alpha  occ. eigenvalues --   -0.52413  -0.50842  -0.49772  -0.48732  -0.48702
 Alpha  occ. eigenvalues --   -0.47744  -0.47737  -0.43470  -0.42464  -0.40103
 Alpha  occ. eigenvalues --   -0.40087  -0.39102  -0.38853  -0.30424  -0.30417
 Alpha  occ. eigenvalues --   -0.29348  -0.29204
 Alpha virt. eigenvalues --    0.03553   0.03570   0.04649   0.04693   0.13403
 Alpha virt. eigenvalues --    0.14357   0.18998   0.19289   0.19892   0.20094
 Alpha virt. eigenvalues --    0.21462   0.22530   0.22810   0.22868   0.23523

 Mulliken charges:
               1
     1  C   -0.161260
     2  H    0.166377
     3  C   -0.164732
     4  H    0.164999
     5  C   -0.164732
     6  H    0.164999
     7  C   -0.164732
     8  H    0.164999
     9  C   -0.164732
    10  H    0.164999
    11  C   -0.161260
    12  H    0.166377
    13  C   -0.146002
    14  C   -0.165030
    15  H    0.156454
    16  H    0.166016
    17  C   -0.163226
    18  H    0.158306
    19  C   -0.162954
    20  H    0.158630
    21  C   -0.163226
    22  H    0.158306
    23  C   -0.165030
    24  H    0.156454
 Sum of Mulliken charges =   0.00000

 Dipole moment (field-independent basis, Debye):
    X=              0.0000    Y=              0.0000    Z=             -0.4390  Tot=              0.4390
 Quadrupole moment (field-independent basis, Debye-Ang):
   XX=            -69.9148   YY=            -62.5036   ZZ=            -70.5447
   XY=              0.0000   XZ=              0.0000   YZ=              0.0000

 Normal termination of Gaussian 09 at Sun Mar 19 00:46:48 2017.
