 Gaussian 09, Revision D.01,
 Gaussian 09:  EM64L-G09RevD.01 24-Apr-2013

 -------------------------------------------
 #p pbe1pbe empiricaldispersion=gd3bj 6-31g*
 -------------------------------------------

 ---------------------
 benzene dimer 2.00425
 ---------------------
 Symbolic Z-matrix:
 Charge =  0 Multiplicity = 1

                         Standard orientation:
 ---------------------------------------------------------------------
 Center     Atomic      Atomic             Coordinates (Angstroms)
 Number     Number       Type             X           Y           Z
 ---------------------------------------------------------------------
      1          6           0       -1.391500    0.000000   -2.250000
      2          1           0       -2.471500    0.000000   -2.250000
      3          6           0       -0.695750    1.205074   -2.250000
      4          1           0       -1.235750    2.140382   -2.250000
      5          6           0       -0.695750   -1.205074   -2.250000
      6          1           0       -1.235750   -2.140382   -2.250000
      7          6           0        0.695750    1.205074   -2.250000
      8          1           0        1.235750    2.140382   -2.250000
      9          6           0        0.695750   -1.205074   -2.250000
     10          1           0        1.235750   -2.140382   -2.250000
     11          6           0        1.391500    0.000000   -2.250000
     12          1           0        2.471500    0.000000   -2.250000
     13          6           0        0.000000    0.000000    0.858500
     14          6           0        0.000000   -1.205074    1.554250
     15          1           0        0.000000   -2.140382    1.014250
     16          1           0        0.000000    0.000000   -0.221500
     17          6           0        0.000000   -1.205074    2.945750
     18          1           0        0.000000   -2.140382    3.485750
     19          6           0        0.000000    0.000000    3.641500
     20          1           0        0.000000    0.000000    4.721500
     21          6           0        0.000000    1.205074    2.945750
     22          1           0        0.000000    2.140382    3.485750
     23          6           0        0.000000    1.205074    1.554250
     24          1           0        0.000000    2.140382    1.014250
 ---------------------------------------------------------------------

 SCF Done:  E(RPBE1PBE) =  -463.949100724     A.U. after   13 cycles

 The electronic state is 1-A1.
 Alpha  occ. eigenvalues --  -10.24244 -10.24221 -10.24206 -10.24159 -10.24142
 Alpha  occ. eigenvalues --  -10.24120 -10.22503 -10.22470 -10.22416 -10.22234
 Alpha  occ. eigenvalues --  -10.22231 -10.21574  -0.88470  -0.86355  -0.77247
 Alpha  occ. eigenvalues --   -0.77201  -0.75373  -0.75217  -0.62428  -0.62424
 Alpha  occ. eigenvalues --   -0.60624  -0.60580  -0.54453  -0.52631  -0.47941
 Alpha  occ. eigenvalues --   -0.46364  -0.46104  -0.44205  -0.43762  -0.43714
 Alpha  occ. eigenvalues --   -0.42615  -0.42010  -0.37736  -0.36490  -0.35696
 Alpha  occ. eigenvalues --   -0.35667  -0.33934  -0.32990  -0.26891  -0.26713
 Alpha  occ. eigenvalues --   -0.24752  -0.24318
 Alpha virt. eigenvalues --   -0.00008   0.00089   0.02093   0.02135   0.09570
 Alpha virt. eigenvalues --    0.11862   0.14822   0.15569   0.16846   0.17159
 Alpha virt. eigenvalues --    0.17664   0.18777   0.19233   0.19595   0.20368

 Mulliken charges:
               1
     1  C   -0.165095
     2  H    0.175657
     3  C   -0.172032
     4  H    0.174012
     5  C   -0.172032
     6  H    0.174012
     7  C   -0.172032
     8  H    0.174012
     9  C   -0.172032
    10  H    0.174012
    11  C   -0.165095
    12  H    0.175657
    13  C   -0.118469
    14  C   -0.180344
    15  H    0.155663
    16  H    0.165881
    17  C   -0.171854
    18  H    0.161858
    19  C   -0.169575
    20  H    0.162468
    21  C   -0.171854
    22  H    0.161858
    23  C   -0.180344
    24  H    0.155663
 Sum of Mulliken charges =   0.00000

 Dipole moment (field-independent basis, Debye):
    X=              0.0000    Y=              0.0000    Z=             -0.8486  Tot=              0.8486
 Quadrupole moment (field-independent basis, Debye-Ang):
   XX=            -69.1725   YY=            -62.0719   ZZ=            -70.4561
   XY=              0.0000   XZ=              0.0000   YZ=              0.0000

 Normal termination of Gaussian 09 at Sun Mar 19 01:32:35 2017.
