 Gaussian 09, Revision D.01,
 Gaussian 09:  EM64L-G09RevD.01 24-Apr-2013

 ------------
 #p hf 6-31g*
 ------------

 ---------------------
 benzene dimer 3.90425
 ---------------------
 Symbolic Z-matrix:
 Charge =  0 Multiplicity = 1

                         Standard orientation:
 ---------------------------------------------------------------------
 Center     Atomic      Atomic             Coordinates (Angstroms)
 Number     Number       Type             X           Y           Z
 ---------------------------------------------------------------------
      1          6           0       -1.391500    0.000000   -3.200000
      2          1           0       -2.471500    0.000000   -3.200000
      3          6           0       -0.695750    1.205074   -3.200000
      4          1           0       -1.235750    2.140382   -3.200000
      5          6           0       -0.695750   -1.205074   -3.200000
      6          1           0       -1.235750   -2.140382   -3.200000
      7          6           0        0.695750    1.205074   -3.200000
      8          1           0        1.235750    2.140382   -3.200000
      9          6           0        0.695750   -1.205074   -3.200000
     10          1           0        1.235750   -2.140382   -3.200000
     11          6           0        1.391500    0.000000   -3.200000
     12          1           0        2.471500    0.000000   -3.200000
     13          6           0        0.000000    0.000000    1.808500
     14          6           0        0.000000   -1.205074    2.504250
     15          1           0        0.000000   -2.140382    1.964250
     16          1           0        0.000000    0.000000    0.728500
     17          6           0        0.000000   -1.205074    3.895750
     18          1           0        0.000000   -2.140382    4.435750
     19          6           0        0.000000    0.000000    4.591500
     20          1           0        0.000000    0.000000    5.671500
     21          6           0        0.000000    1.205074    3.895750
     22          1           0        0.000000    2.140382    4.435750
     23          6           0        0.000000    1.205074    2.504250
     24          1           0        0.000000    2.140382    1.964250
 ---------------------------------------------------------------------

 SCF Done:  E(RHF) =  -461.406399883     A.U. after   11 cycles

 The electronic state is 1-A1.
 Alpha  occ. eigenvalues --  -11.23380 -11.23326 -11.23321 -11.23204 -11.23199
 Alpha  occ. eigenvalues --  -11.23143 -11.22834 -11.22775 -11.22724 -11.22638
 Alpha  occ. eigenvalues --  -11.22636 -11.22519  -1.14697  -1.14120  -1.01145
 Alpha  occ. eigenvalues --   -1.01136  -1.00588  -1.00549  -0.82051  -0.82049
 Alpha  occ. eigenvalues --   -0.81493  -0.81471  -0.70655  -0.70087  -0.64141
 Alpha  occ. eigenvalues --   -0.63580  -0.61410  -0.60838  -0.58494  -0.58483
 Alpha  occ. eigenvalues --   -0.57954  -0.57886  -0.49828  -0.49239  -0.49112
 Alpha  occ. eigenvalues --   -0.49103  -0.48567  -0.48498  -0.33206  -0.33190
 Alpha  occ. eigenvalues --   -0.32655  -0.32600
 Alpha virt. eigenvalues --    0.14611   0.14621   0.15159   0.15203   0.23325
 Alpha virt. eigenvalues --    0.23858   0.29198   0.29234   0.29657   0.29782
 Alpha virt. eigenvalues --    0.33065   0.33083   0.33531   0.33544   0.33566

 Mulliken charges:
               1
     1  C   -0.200247
     2  H    0.201598
     3  C   -0.201237
     4  H    0.200873
     5  C   -0.201237
     6  H    0.200873
     7  C   -0.201237
     8  H    0.200873
     9  C   -0.201237
    10  H    0.200873
    11  C   -0.200247
    12  H    0.201598
    13  C   -0.204911
    14  C   -0.201058
    15  H    0.199048
    16  H    0.214235
    17  C   -0.199849
    18  H    0.197910
    19  C   -0.200660
    20  H    0.197989
    21  C   -0.199849
    22  H    0.197910
    23  C   -0.201058
    24  H    0.199048
 Sum of Mulliken charges =   0.00000

 Dipole moment (field-independent basis, Debye):
    X=              0.0000    Y=              0.0000    Z=             -0.1878  Tot=              0.1878
 Quadrupole moment (field-independent basis, Debye-Ang):
   XX=            -71.1373   YY=            -62.8103   ZZ=            -71.6896
   XY=              0.0000   XZ=              0.0000   YZ=              0.0000

 Normal termination of Gaussian 09 at Sun Mar 19 00:53:05 2017.
