 Gaussian 09, Revision D.01,
 Gaussian 09:  EM64L-G09RevD.01 24-Apr-2013

 -------------------------------------------
 #p pbe1pbe empiricaldispersion=gd3bj 6-31g*
 -------------------------------------------

 ---------------------
 benzene dimer 2.30425
 ---------------------
 Symbolic Z-matrix:
 Charge =  0 Multiplicity = 1

                         Standard orientation:
 ---------------------------------------------------------------------
 Center     Atomic      Atomic             Coordinates (Angstroms)
 Number     Number       Type             X           Y           Z
 ---------------------------------------------------------------------
      1          6           0       -1.391500    0.000000   -2.400000
      2          1           0       -2.471500    0.000000   -2.400000
      3          6           0       -0.695750    1.205074   -2.400000
      4          1           0       -1.235750    2.140382   -2.400000
      5          6           0       -0.695750   -1.205074   -2.400000
      6          1           0       -1.235750   -2.140382   -2.400000
      7          6           0        0.695750    1.205074   -2.400000
      8          1           0        1.235750    2.140382   -2.400000
      9          6           0        0.695750   -1.205074   -2.400000
     10          1           0        1.235750   -2.140382   -2.400000
     11          6           0        1.391500    0.000000   -2.400000
     12          1           0        2.471500    0.000000   -2.400000
     13          6           0        0.000000    0.000000    1.008500
     14          6           0        0.000000   -1.205074    1.704250
     15          1           0        0.000000   -2.140382    1.164250
     16          1           0        0.000000    0.000000   -0.071500
     17          6           0        0.000000   -1.205074    3.095750
     18          1           0        0.000000   -2.140382    3.635750
     19          6           0        0.000000    0.000000    3.791500
     20          1           0        0.000000    0.000000    4.871500
     21          6           0        0.000000    1.205074    3.095750
     22          1           0        0.000000    2.140382    3.635750
     23          6           0        0.000000    1.205074    1.704250
     24          1           0        0.000000    2.140382    1.164250
 ---------------------------------------------------------------------

 SCF Done:  E(RPBE1PBE) =  -463.952018641     A.U. after   13 cycles

 The electronic state is 1-A1.
 Alpha  occ. eigenvalues --  -10.24101 -10.24078 -10.24063 -10.24017 -10.23998
 Alpha  occ. eigenvalues --  -10.23977 -10.22696 -10.22658 -10.22611 -10.22480
 Alpha  occ. eigenvalues --  -10.22476 -10.22029  -0.88200  -0.86585  -0.77063
 Alpha  occ. eigenvalues --   -0.77028  -0.75579  -0.75451  -0.62283  -0.62278
 Alpha  occ. eigenvalues --   -0.60832  -0.60769  -0.54251  -0.52787  -0.47822
 Alpha  occ. eigenvalues --   -0.46466  -0.45948  -0.44427  -0.43597  -0.43557
 Alpha  occ. eigenvalues --   -0.42384  -0.42199  -0.37984  -0.36686  -0.35553
 Alpha  occ. eigenvalues --   -0.35529  -0.34141  -0.33606  -0.26548  -0.26488
 Alpha  occ. eigenvalues --   -0.24940  -0.24680
 Alpha virt. eigenvalues --    0.00252   0.00293   0.01835   0.01892   0.09790
 Alpha virt. eigenvalues --    0.11488   0.15160   0.15660   0.16882   0.17036
 Alpha virt. eigenvalues --    0.17390   0.18540   0.19327   0.19433   0.20321

 Mulliken charges:
               1
     1  C   -0.167008
     2  H    0.174201
     3  C   -0.172191
     4  H    0.172729
     5  C   -0.172191
     6  H    0.172729
     7  C   -0.172191
     8  H    0.172729
     9  C   -0.172191
    10  H    0.172729
    11  C   -0.167008
    12  H    0.174201
    13  C   -0.153673
    14  C   -0.177002
    15  H    0.160044
    16  H    0.191722
    17  C   -0.170765
    18  H    0.163261
    19  C   -0.169370
    20  H    0.163709
    21  C   -0.170765
    22  H    0.163261
    23  C   -0.177002
    24  H    0.160044
 Sum of Mulliken charges =   0.00000

 Dipole moment (field-independent basis, Debye):
    X=              0.0000    Y=              0.0000    Z=             -0.6701  Tot=              0.6701
 Quadrupole moment (field-independent basis, Debye-Ang):
   XX=            -69.3066   YY=            -61.9774   ZZ=            -70.2797
   XY=              0.0000   XZ=              0.0000   YZ=              0.0000

 Normal termination of Gaussian 09 at Sun Mar 19 01:34:39 2017.
