 Gaussian 09, Revision D.01,
 Gaussian 09:  EM64L-G09RevD.01 24-Apr-2013

 ----------------------------------------------
 #p b3lyp empiricaldispersion=gd3bj may-cc-pVQZ
 ----------------------------------------------

 ---------------------
 benzene dimer 5.40425
 ---------------------
 Symbolic Z-matrix:
 Charge =  0 Multiplicity = 1

                         Standard orientation:
 ---------------------------------------------------------------------
 Center     Atomic      Atomic             Coordinates (Angstroms)
 Number     Number       Type             X           Y           Z
 ---------------------------------------------------------------------
      1          6           0       -1.391500    0.000000   -3.950000
      2          1           0       -2.471500    0.000000   -3.950000
      3          6           0       -0.695750    1.205074   -3.950000
      4          1           0       -1.235750    2.140382   -3.950000
      5          6           0       -0.695750   -1.205074   -3.950000
      6          1           0       -1.235750   -2.140382   -3.950000
      7          6           0        0.695750    1.205074   -3.950000
      8          1           0        1.235750    2.140382   -3.950000
      9          6           0        0.695750   -1.205074   -3.950000
     10          1           0        1.235750   -2.140382   -3.950000
     11          6           0        1.391500    0.000000   -3.950000
     12          1           0        2.471500    0.000000   -3.950000
     13          6           0        0.000000    0.000000    2.558500
     14          6           0        0.000000   -1.205074    3.254250
     15          1           0        0.000000   -2.140382    2.714250
     16          1           0        0.000000    0.000000    1.478500
     17          6           0        0.000000   -1.205074    4.645750
     18          1           0        0.000000   -2.140382    5.185750
     19          6           0        0.000000    0.000000    5.341500
     20          1           0        0.000000    0.000000    6.421500
     21          6           0        0.000000    1.205074    4.645750
     22          1           0        0.000000    2.140382    5.185750
     23          6           0        0.000000    1.205074    3.254250
     24          1           0        0.000000    2.140382    2.714250
 ---------------------------------------------------------------------

 SCF Done:  E(RB3LYP) =  -464.739319559     A.U. after    9 cycles

 The electronic state is 1-A1.
 Alpha  occ. eigenvalues --  -10.17871 -10.17843 -10.17841 -10.17782 -10.17780
 Alpha  occ. eigenvalues --  -10.17752 -10.17627 -10.17598 -10.17582 -10.17533
 Alpha  occ. eigenvalues --  -10.17532 -10.17488  -0.86026  -0.85774  -0.75165
 Alpha  occ. eigenvalues --   -0.75162  -0.74918  -0.74906  -0.60855  -0.60854
 Alpha  occ. eigenvalues --   -0.60608  -0.60600  -0.53078  -0.52827  -0.46683
 Alpha  occ. eigenvalues --   -0.46433  -0.45336  -0.45085  -0.42808  -0.42804
 Alpha  occ. eigenvalues --   -0.42567  -0.42544  -0.37521  -0.37268  -0.35068
 Alpha  occ. eigenvalues --   -0.35065  -0.34825  -0.34807  -0.26146  -0.26142
 Alpha  occ. eigenvalues --   -0.25899  -0.25885
 Alpha virt. eigenvalues --   -0.01863  -0.01860  -0.01614  -0.01607  -0.00951
 Alpha virt. eigenvalues --   -0.00084   0.00632   0.00936   0.01394   0.01410
 Alpha virt. eigenvalues --    0.02981   0.03045   0.03293   0.03422   0.03644

 Mulliken charges:
               1
     1  C   -0.166208
     2  H    0.158999
     3  C   -0.156145
     4  H    0.159710
     5  C   -0.156145
     6  H    0.159710
     7  C   -0.156145
     8  H    0.159710
     9  C   -0.156145
    10  H    0.159710
    11  C   -0.166208
    12  H    0.158999
    13  C   -0.160086
    14  C   -0.148866
    15  H    0.160513
    16  H    0.173275
    17  C   -0.167823
    18  H    0.159029
    19  C   -0.179550
    20  H    0.160815
    21  C   -0.167823
    22  H    0.159029
    23  C   -0.148866
    24  H    0.160513
 Sum of Mulliken charges =   0.00000

 Dipole moment (field-independent basis, Debye):
    X=              0.0000    Y=              0.0000    Z=             -0.0824  Tot=              0.0824
 Quadrupole moment (field-independent basis, Debye-Ang):
   XX=            -72.2101   YY=            -64.8352   ZZ=            -72.5163
   XY=              0.0000   XZ=              0.0000   YZ=              0.0000

 Normal termination of Gaussian 09 at Sun Mar 19 02:33:05 2017.
