 Gaussian 09, Revision D.01,
 Gaussian 09:  EM64L-G09RevD.01 24-Apr-2013

 ----------------------------------------------
 #p b3lyp empiricaldispersion=gd3bj jun-cc-pVTZ
 ----------------------------------------------

 ---------------------
 benzene dimer 2.00425
 ---------------------
 Symbolic Z-matrix:
 Charge =  0 Multiplicity = 1

                         Standard orientation:
 ---------------------------------------------------------------------
 Center     Atomic      Atomic             Coordinates (Angstroms)
 Number     Number       Type             X           Y           Z
 ---------------------------------------------------------------------
      1          6           0       -1.391500    0.000000   -2.250000
      2          1           0       -2.471500    0.000000   -2.250000
      3          6           0       -0.695750    1.205074   -2.250000
      4          1           0       -1.235750    2.140382   -2.250000
      5          6           0       -0.695750   -1.205074   -2.250000
      6          1           0       -1.235750   -2.140382   -2.250000
      7          6           0        0.695750    1.205074   -2.250000
      8          1           0        1.235750    2.140382   -2.250000
      9          6           0        0.695750   -1.205074   -2.250000
     10          1           0        1.235750   -2.140382   -2.250000
     11          6           0        1.391500    0.000000   -2.250000
     12          1           0        2.471500    0.000000   -2.250000
     13          6           0        0.000000    0.000000    0.858500
     14          6           0        0.000000   -1.205074    1.554250
     15          1           0        0.000000   -2.140382    1.014250
     16          1           0        0.000000    0.000000   -0.221500
     17          6           0        0.000000   -1.205074    2.945750
     18          1           0        0.000000   -2.140382    3.485750
     19          6           0        0.000000    0.000000    3.641500
     20          1           0        0.000000    0.000000    4.721500
     21          6           0        0.000000    1.205074    2.945750
     22          1           0        0.000000    2.140382    3.485750
     23          6           0        0.000000    1.205074    1.554250
     24          1           0        0.000000    2.140382    1.014250
 ---------------------------------------------------------------------

 SCF Done:  E(RB3LYP) =  -464.708104950     A.U. after   11 cycles

 The electronic state is 1-A1.
 Alpha  occ. eigenvalues --  -10.18627 -10.18603 -10.18595 -10.18543 -10.18535
 Alpha  occ. eigenvalues --  -10.18512 -10.17213 -10.17188 -10.17122 -10.16975
 Alpha  occ. eigenvalues --  -10.16972 -10.16422  -0.86760  -0.84984  -0.75758
 Alpha  occ. eigenvalues --   -0.75718  -0.74196  -0.74074  -0.61346  -0.61342
 Alpha  occ. eigenvalues --   -0.59850  -0.59829  -0.53612  -0.52107  -0.47093
 Alpha  occ. eigenvalues --   -0.45823  -0.45819  -0.44265  -0.43312  -0.43269
 Alpha  occ. eigenvalues --   -0.42426  -0.41849  -0.37512  -0.36506  -0.35522
 Alpha  occ. eigenvalues --   -0.35495  -0.34059  -0.33157  -0.27069  -0.26805
 Alpha  occ. eigenvalues --   -0.25183  -0.24699
 Alpha virt. eigenvalues --   -0.02656  -0.02392  -0.00806  -0.00710  -0.00597
 Alpha virt. eigenvalues --    0.00593   0.00632   0.01194   0.02411   0.02646
 Alpha virt. eigenvalues --    0.03136   0.03296   0.04577   0.04592   0.05081

 Mulliken charges:
               1
     1  C   -0.133542
     2  H    0.119795
     3  C   -0.126116
     4  H    0.127567
     5  C   -0.126116
     6  H    0.127567
     7  C   -0.126116
     8  H    0.127567
     9  C   -0.126116
    10  H    0.127567
    11  C   -0.133542
    12  H    0.119795
    13  C    0.246083
    14  C   -0.223619
    15  H    0.110189
    16  H    0.034368
    17  C   -0.124526
    18  H    0.119191
    19  C   -0.116378
    20  H    0.095143
    21  C   -0.124526
    22  H    0.119191
    23  C   -0.223619
    24  H    0.110189
 Sum of Mulliken charges =   0.00000

 Dipole moment (field-independent basis, Debye):
    X=              0.0000    Y=              0.0000    Z=             -0.7143  Tot=              0.7143
 Quadrupole moment (field-independent basis, Debye-Ang):
   XX=            -71.7316   YY=            -65.0604   ZZ=            -73.4597
   XY=              0.0000   XZ=              0.0000   YZ=              0.0000

 Normal termination of Gaussian 09 at Sun Mar 19 00:51:12 2017.
