 Gaussian 09, Revision D.01,
 Gaussian 09:  EM64L-G09RevD.01 24-Apr-2013

 ----------------------------------------------
 #p b3lyp empiricaldispersion=gd3bj may-cc-pVQZ
 ----------------------------------------------

 ---------------------
 benzene dimer 1.90425
 ---------------------
 Symbolic Z-matrix:
 Charge =  0 Multiplicity = 1

                         Standard orientation:
 ---------------------------------------------------------------------
 Center     Atomic      Atomic             Coordinates (Angstroms)
 Number     Number       Type             X           Y           Z
 ---------------------------------------------------------------------
      1          6           0       -1.391500    0.000000   -2.200000
      2          1           0       -2.471500    0.000000   -2.200000
      3          6           0       -0.695750    1.205074   -2.200000
      4          1           0       -1.235750    2.140382   -2.200000
      5          6           0       -0.695750   -1.205074   -2.200000
      6          1           0       -1.235750   -2.140382   -2.200000
      7          6           0        0.695750    1.205074   -2.200000
      8          1           0        1.235750    2.140382   -2.200000
      9          6           0        0.695750   -1.205074   -2.200000
     10          1           0        1.235750   -2.140382   -2.200000
     11          6           0        1.391500    0.000000   -2.200000
     12          1           0        2.471500    0.000000   -2.200000
     13          6           0        0.000000    0.000000    0.808500
     14          6           0        0.000000   -1.205074    1.504250
     15          1           0        0.000000   -2.140382    0.964250
     16          1           0        0.000000    0.000000   -0.271500
     17          6           0        0.000000   -1.205074    2.895750
     18          1           0        0.000000   -2.140382    3.435750
     19          6           0        0.000000    0.000000    3.591500
     20          1           0        0.000000    0.000000    4.671500
     21          6           0        0.000000    1.205074    2.895750
     22          1           0        0.000000    2.140382    3.435750
     23          6           0        0.000000    1.205074    1.504250
     24          1           0        0.000000    2.140382    0.964250
 ---------------------------------------------------------------------

 SCF Done:  E(RB3LYP) =  -464.737488078     A.U. after   10 cycles

 The electronic state is 1-A1.
 Alpha  occ. eigenvalues --  -10.18373 -10.18347 -10.18341 -10.18286 -10.18279
 Alpha  occ. eigenvalues --  -10.18253 -10.16847 -10.16824 -10.16747 -10.16589
 Alpha  occ. eigenvalues --  -10.16586 -10.15949  -0.86832  -0.84860  -0.75789
 Alpha  occ. eigenvalues --   -0.75745  -0.74090  -0.73961  -0.61379  -0.61377
 Alpha  occ. eigenvalues --   -0.59767  -0.59760  -0.53711  -0.52075  -0.47140
 Alpha  occ. eigenvalues --   -0.45875  -0.45813  -0.44193  -0.43379  -0.43335
 Alpha  occ. eigenvalues --   -0.42534  -0.41795  -0.37394  -0.36453  -0.35582
 Alpha  occ. eigenvalues --   -0.35554  -0.34002  -0.32897  -0.27217  -0.26885
 Alpha  occ. eigenvalues --   -0.25130  -0.24562
 Alpha virt. eigenvalues --   -0.02767  -0.02466  -0.01092  -0.00636  -0.00509
 Alpha virt. eigenvalues --    0.00340   0.00350   0.00868   0.02079   0.02311
 Alpha virt. eigenvalues --    0.02740   0.02922   0.03908   0.04174   0.04656

 Mulliken charges:
               1
     1  C   -0.176546
     2  H    0.143179
     3  C   -0.127572
     4  H    0.146927
     5  C   -0.127572
     6  H    0.146927
     7  C   -0.127572
     8  H    0.146927
     9  C   -0.127572
    10  H    0.146927
    11  C   -0.176546
    12  H    0.143179
    13  C   -0.593331
    14  C   -0.092349
    15  H    0.177922
    16  H    0.293571
    17  C   -0.111868
    18  H    0.155498
    19  C   -0.119907
    20  H    0.150576
    21  C   -0.111868
    22  H    0.155498
    23  C   -0.092349
    24  H    0.177922
 Sum of Mulliken charges =   0.00000

 Dipole moment (field-independent basis, Debye):
    X=              0.0000    Y=              0.0000    Z=             -0.7683  Tot=              0.7683
 Quadrupole moment (field-independent basis, Debye-Ang):
   XX=            -71.6087   YY=            -65.0485   ZZ=            -73.5663
   XY=              0.0000   XZ=              0.0000   YZ=              0.0000

 Normal termination of Gaussian 09 at Sun Mar 19 02:56:47 2017.
