 Gaussian 09, Revision D.01,
 Gaussian 09:  EM64L-G09RevD.01 24-Apr-2013

 ---------------
 #p m062x 6-31g*
 ---------------

 ---------------------
 benzene dimer 4.40425
 ---------------------
 Symbolic Z-matrix:
 Charge =  0 Multiplicity = 1

                         Standard orientation:
 ---------------------------------------------------------------------
 Center     Atomic      Atomic             Coordinates (Angstroms)
 Number     Number       Type             X           Y           Z
 ---------------------------------------------------------------------
      1          6           0       -1.391500    0.000000   -3.450000
      2          1           0       -2.471500    0.000000   -3.450000
      3          6           0       -0.695750    1.205074   -3.450000
      4          1           0       -1.235750    2.140382   -3.450000
      5          6           0       -0.695750   -1.205074   -3.450000
      6          1           0       -1.235750   -2.140382   -3.450000
      7          6           0        0.695750    1.205074   -3.450000
      8          1           0        1.235750    2.140382   -3.450000
      9          6           0        0.695750   -1.205074   -3.450000
     10          1           0        1.235750   -2.140382   -3.450000
     11          6           0        1.391500    0.000000   -3.450000
     12          1           0        2.471500    0.000000   -3.450000
     13          6           0        0.000000    0.000000    2.058500
     14          6           0        0.000000   -1.205074    2.754250
     15          1           0        0.000000   -2.140382    2.214250
     16          1           0        0.000000    0.000000    0.978500
     17          6           0        0.000000   -1.205074    4.145750
     18          1           0        0.000000   -2.140382    4.685750
     19          6           0        0.000000    0.000000    4.841500
     20          1           0        0.000000    0.000000    5.921500
     21          6           0        0.000000    1.205074    4.145750
     22          1           0        0.000000    2.140382    4.685750
     23          6           0        0.000000    1.205074    2.754250
     24          1           0        0.000000    2.140382    2.214250
 ---------------------------------------------------------------------

 SCF Done:  E(RM062X) =  -464.273084760     A.U. after   13 cycles

 The electronic state is 1-A1.
 Alpha  occ. eigenvalues --  -10.54814 -10.54779 -10.54776 -10.54701 -10.54697
 Alpha  occ. eigenvalues --  -10.54661 -10.54434 -10.54393 -10.54364 -10.54307
 Alpha  occ. eigenvalues --  -10.54306 -10.54230  -0.95404  -0.95004  -0.83804
 Alpha  occ. eigenvalues --   -0.83798  -0.83415  -0.83390  -0.68169  -0.68167
 Alpha  occ. eigenvalues --   -0.67780  -0.67763  -0.59726  -0.59330  -0.53187
 Alpha  occ. eigenvalues --   -0.52793  -0.50561  -0.50163  -0.48462  -0.48453
 Alpha  occ. eigenvalues --   -0.48085  -0.48037  -0.43233  -0.42829  -0.39843
 Alpha  occ. eigenvalues --   -0.39839  -0.39462  -0.39427  -0.30076  -0.30069
 Alpha  occ. eigenvalues --   -0.29685  -0.29660
 Alpha virt. eigenvalues --    0.03895   0.03899   0.04285   0.04305   0.13681
 Alpha virt. eigenvalues --    0.14044   0.19412   0.19435   0.19739   0.19803
 Alpha virt. eigenvalues --    0.21773   0.22169   0.23052   0.23064   0.23397

 Mulliken charges:
               1
     1  C   -0.162608
     2  H    0.163257
     3  C   -0.162893
     4  H    0.162647
     5  C   -0.162893
     6  H    0.162647
     7  C   -0.162893
     8  H    0.162647
     9  C   -0.162893
    10  H    0.162647
    11  C   -0.162608
    12  H    0.163257
    13  C   -0.161528
    14  C   -0.162837
    15  H    0.161655
    16  H    0.168442
    17  C   -0.162201
    18  H    0.160638
    19  C   -0.162499
    20  H    0.160758
    21  C   -0.162201
    22  H    0.160638
    23  C   -0.162837
    24  H    0.161655
 Sum of Mulliken charges =   0.00000

 Dipole moment (field-independent basis, Debye):
    X=              0.0000    Y=              0.0000    Z=             -0.1152  Tot=              0.1152
 Quadrupole moment (field-independent basis, Debye-Ang):
   XX=            -70.1091   YY=            -62.4090   ZZ=            -70.5492
   XY=              0.0000   XZ=              0.0000   YZ=              0.0000

 Normal termination of Gaussian 09 at Sun Mar 19 00:56:46 2017.
