 Gaussian 09, Revision D.01,
 Gaussian 09:  EM64L-G09RevD.01 24-Apr-2013

 ------------------------------------------------
 #p pbe1pbe empiricaldispersion=gd3bj may-cc-pVQZ
 ------------------------------------------------

 ---------------------
 benzene dimer 2.50425
 ---------------------
 Symbolic Z-matrix:
 Charge =  0 Multiplicity = 1

                         Standard orientation:
 ---------------------------------------------------------------------
 Center     Atomic      Atomic             Coordinates (Angstroms)
 Number     Number       Type             X           Y           Z
 ---------------------------------------------------------------------
      1          6           0       -1.391500    0.000000   -2.500000
      2          1           0       -2.471500    0.000000   -2.500000
      3          6           0       -0.695750    1.205074   -2.500000
      4          1           0       -1.235750    2.140382   -2.500000
      5          6           0       -0.695750   -1.205074   -2.500000
      6          1           0       -1.235750   -2.140382   -2.500000
      7          6           0        0.695750    1.205074   -2.500000
      8          1           0        1.235750    2.140382   -2.500000
      9          6           0        0.695750   -1.205074   -2.500000
     10          1           0        1.235750   -2.140382   -2.500000
     11          6           0        1.391500    0.000000   -2.500000
     12          1           0        2.471500    0.000000   -2.500000
     13          6           0        0.000000    0.000000    1.108500
     14          6           0        0.000000   -1.205074    1.804250
     15          1           0        0.000000   -2.140382    1.264250
     16          1           0        0.000000    0.000000    0.028500
     17          6           0        0.000000   -1.205074    3.195750
     18          1           0        0.000000   -2.140382    3.735750
     19          6           0        0.000000    0.000000    3.891500
     20          1           0        0.000000    0.000000    4.971500
     21          6           0        0.000000    1.205074    3.195750
     22          1           0        0.000000    2.140382    3.735750
     23          6           0        0.000000    1.205074    1.804250
     24          1           0        0.000000    2.140382    1.264250
 ---------------------------------------------------------------------

 SCF Done:  E(RPBE1PBE) =  -464.136707766     A.U. after   10 cycles

 The electronic state is 1-A1.
 Alpha  occ. eigenvalues --  -10.23323 -10.23297 -10.23286 -10.23232 -10.23220
 Alpha  occ. eigenvalues --  -10.23195 -10.22241 -10.22205 -10.22153 -10.22071
 Alpha  occ. eigenvalues --  -10.22065 -10.21782  -0.88823  -0.87609  -0.77612
 Alpha  occ. eigenvalues --   -0.77586  -0.76476  -0.76384  -0.62817  -0.62813
 Alpha  occ. eigenvalues --   -0.61699  -0.61652  -0.54773  -0.53647  -0.48126
 Alpha  occ. eigenvalues --   -0.47059  -0.46817  -0.45658  -0.44092  -0.44060
 Alpha  occ. eigenvalues --   -0.43095  -0.43013  -0.39023  -0.37974  -0.36103
 Alpha  occ. eigenvalues --   -0.36082  -0.35015  -0.34687  -0.27478  -0.27414
 Alpha  occ. eigenvalues --   -0.26236  -0.26024
 Alpha virt. eigenvalues --   -0.01659  -0.01523  -0.00316  -0.00271  -0.00219
 Alpha virt. eigenvalues --    0.01083   0.01142   0.01692   0.02771   0.02964
 Alpha virt. eigenvalues --    0.03575   0.03703   0.04547   0.04788   0.05088

 Mulliken charges:
               1
     1  C   -0.196648
     2  H    0.176772
     3  C   -0.157299
     4  H    0.172003
     5  C   -0.157299
     6  H    0.172003
     7  C   -0.157299
     8  H    0.172003
     9  C   -0.157299
    10  H    0.172003
    11  C   -0.196648
    12  H    0.176772
    13  C   -0.368625
    14  C   -0.098379
    15  H    0.207252
    16  H    0.148434
    17  C   -0.173169
    18  H    0.183392
    19  C   -0.213882
    20  H    0.176820
    21  C   -0.173169
    22  H    0.183392
    23  C   -0.098379
    24  H    0.207252
 Sum of Mulliken charges =   0.00000

 Dipole moment (field-independent basis, Debye):
    X=              0.0000    Y=              0.0000    Z=             -0.5180  Tot=              0.5180
 Quadrupole moment (field-independent basis, Debye-Ang):
   XX=            -71.2138   YY=            -63.7779   ZZ=            -72.1849
   XY=              0.0000   XZ=              0.0000   YZ=              0.0000

 Normal termination of Gaussian 09 at Sun Mar 19 04:41:14 2017.
