 Gaussian 09, Revision D.01,
 Gaussian 09:  EM64L-G09RevD.01 24-Apr-2013

 ------------------------------------------
 #p b3lyp empiricaldispersion=gd3bj cc-pVQZ
 ------------------------------------------

 ---------------------
 benzene dimer 2.10425
 ---------------------
 Symbolic Z-matrix:
 Charge =  0 Multiplicity = 1

                         Standard orientation:
 ---------------------------------------------------------------------
 Center     Atomic      Atomic             Coordinates (Angstroms)
 Number     Number       Type             X           Y           Z
 ---------------------------------------------------------------------
      1          6           0       -1.391500    0.000000   -2.300000
      2          1           0       -2.471500    0.000000   -2.300000
      3          6           0       -0.695750    1.205074   -2.300000
      4          1           0       -1.235750    2.140382   -2.300000
      5          6           0       -0.695750   -1.205074   -2.300000
      6          1           0       -1.235750   -2.140382   -2.300000
      7          6           0        0.695750    1.205074   -2.300000
      8          1           0        1.235750    2.140382   -2.300000
      9          6           0        0.695750   -1.205074   -2.300000
     10          1           0        1.235750   -2.140382   -2.300000
     11          6           0        1.391500    0.000000   -2.300000
     12          1           0        2.471500    0.000000   -2.300000
     13          6           0        0.000000    0.000000    0.908500
     14          6           0        0.000000   -1.205074    1.604250
     15          1           0        0.000000   -2.140382    1.064250
     16          1           0        0.000000    0.000000   -0.171500
     17          6           0        0.000000   -1.205074    2.995750
     18          1           0        0.000000   -2.140382    3.535750
     19          6           0        0.000000    0.000000    3.691500
     20          1           0        0.000000    0.000000    4.771500
     21          6           0        0.000000    1.205074    2.995750
     22          1           0        0.000000    2.140382    3.535750
     23          6           0        0.000000    1.205074    1.604250
     24          1           0        0.000000    2.140382    1.064250
 ---------------------------------------------------------------------

 SCF Done:  E(RB3LYP) =  -464.740819725     A.U. after   12 cycles

 The electronic state is 1-A1.
 Alpha  occ. eigenvalues --  -10.18231 -10.18207 -10.18197 -10.18146 -10.18135
 Alpha  occ. eigenvalues --  -10.18111 -10.16864 -10.16836 -10.16776 -10.16646
 Alpha  occ. eigenvalues --  -10.16642 -10.16165  -0.86562  -0.84912  -0.75607
 Alpha  occ. eigenvalues --   -0.75571  -0.74127  -0.74011  -0.61233  -0.61229
 Alpha  occ. eigenvalues --   -0.59805  -0.59772  -0.53503  -0.52074  -0.47016
 Alpha  occ. eigenvalues --   -0.45761  -0.45722  -0.44234  -0.43216  -0.43175
 Alpha  occ. eigenvalues --   -0.42256  -0.41825  -0.37552  -0.36475  -0.35440
 Alpha  occ. eigenvalues --   -0.35415  -0.34046  -0.33306  -0.26890  -0.26688
 Alpha  occ. eigenvalues --   -0.25148  -0.24743
 Alpha virt. eigenvalues --   -0.02335  -0.02150  -0.00519  -0.00463   0.01820
 Alpha virt. eigenvalues --    0.03971   0.03982   0.05112   0.06611   0.06788
 Alpha virt. eigenvalues --    0.07843   0.08447   0.10382   0.10777   0.10798

 Mulliken charges:
               1
     1  C   -0.105436
     2  H    0.114305
     3  C   -0.125146
     4  H    0.119609
     5  C   -0.125146
     6  H    0.119609
     7  C   -0.125146
     8  H    0.119609
     9  C   -0.125146
    10  H    0.119609
    11  C   -0.105436
    12  H    0.114305
    13  C   -0.121034
    14  C   -0.135413
    15  H    0.107971
    16  H    0.183908
    17  C   -0.113451
    18  H    0.111648
    19  C   -0.112641
    20  H    0.112669
    21  C   -0.113451
    22  H    0.111648
    23  C   -0.135413
    24  H    0.107971
 Sum of Mulliken charges =   0.00000

 Dipole moment (field-independent basis, Debye):
    X=              0.0000    Y=              0.0000    Z=             -0.6667  Tot=              0.6667
 Quadrupole moment (field-independent basis, Debye-Ang):
   XX=            -71.4770   YY=            -64.7660   ZZ=            -72.9028
   XY=              0.0000   XZ=              0.0000   YZ=              0.0000

 Normal termination of Gaussian 09 at Sun Mar 19 01:27:56 2017.
