 Gaussian 09, Revision D.01,
 Gaussian 09:  EM64L-G09RevD.01 24-Apr-2013

 ------------------------------------------
 #p b3lyp empiricaldispersion=gd3bj cc-pVQZ
 ------------------------------------------

 ---------------------
 benzene dimer 3.90425
 ---------------------
 Symbolic Z-matrix:
 Charge =  0 Multiplicity = 1

                         Standard orientation:
 ---------------------------------------------------------------------
 Center     Atomic      Atomic             Coordinates (Angstroms)
 Number     Number       Type             X           Y           Z
 ---------------------------------------------------------------------
      1          6           0       -1.391500    0.000000   -3.200000
      2          1           0       -2.471500    0.000000   -3.200000
      3          6           0       -0.695750    1.205074   -3.200000
      4          1           0       -1.235750    2.140382   -3.200000
      5          6           0       -0.695750   -1.205074   -3.200000
      6          1           0       -1.235750   -2.140382   -3.200000
      7          6           0        0.695750    1.205074   -3.200000
      8          1           0        1.235750    2.140382   -3.200000
      9          6           0        0.695750   -1.205074   -3.200000
     10          1           0        1.235750   -2.140382   -3.200000
     11          6           0        1.391500    0.000000   -3.200000
     12          1           0        2.471500    0.000000   -3.200000
     13          6           0        0.000000    0.000000    1.808500
     14          6           0        0.000000   -1.205074    2.504250
     15          1           0        0.000000   -2.140382    1.964250
     16          1           0        0.000000    0.000000    0.728500
     17          6           0        0.000000   -1.205074    3.895750
     18          1           0        0.000000   -2.140382    4.435750
     19          6           0        0.000000    0.000000    4.591500
     20          1           0        0.000000    0.000000    5.671500
     21          6           0        0.000000    1.205074    3.895750
     22          1           0        0.000000    2.140382    4.435750
     23          6           0        0.000000    1.205074    2.504250
     24          1           0        0.000000    2.140382    1.964250
 ---------------------------------------------------------------------

 SCF Done:  E(RB3LYP) =  -464.739354360     A.U. after   16 cycles

 The electronic state is 1-A1.
 Alpha  occ. eigenvalues --  -10.17862 -10.17836 -10.17832 -10.17775 -10.17771
 Alpha  occ. eigenvalues --  -10.17744 -10.17387 -10.17354 -10.17320 -10.17282
 Alpha  occ. eigenvalues --  -10.17277 -10.17187  -0.86026  -0.85521  -0.75170
 Alpha  occ. eigenvalues --   -0.75162  -0.74682  -0.74649  -0.60862  -0.60859
 Alpha  occ. eigenvalues --   -0.60374  -0.60353  -0.53086  -0.52589  -0.46696
 Alpha  occ. eigenvalues --   -0.46204  -0.45337  -0.44837  -0.42818  -0.42807
 Alpha  occ. eigenvalues --   -0.42345  -0.42286  -0.37536  -0.37026  -0.35077
 Alpha  occ. eigenvalues --   -0.35069  -0.34600  -0.34546  -0.26156  -0.26147
 Alpha  occ. eigenvalues --   -0.25663  -0.25626
 Alpha virt. eigenvalues --   -0.01680  -0.01676  -0.01186  -0.01170   0.02011
 Alpha virt. eigenvalues --    0.03341   0.04698   0.05297   0.05705   0.05932
 Alpha virt. eigenvalues --    0.07895   0.08022   0.08284   0.08440   0.10983

 Mulliken charges:
               1
     1  C   -0.116093
     2  H    0.115829
     3  C   -0.116684
     4  H    0.116970
     5  C   -0.116684
     6  H    0.116970
     7  C   -0.116684
     8  H    0.116970
     9  C   -0.116684
    10  H    0.116970
    11  C   -0.116093
    12  H    0.115829
    13  C   -0.100984
    14  C   -0.136039
    15  H    0.118430
    16  H    0.136971
    17  C   -0.115179
    18  H    0.114569
    19  C   -0.114976
    20  H    0.114809
    21  C   -0.115179
    22  H    0.114569
    23  C   -0.136039
    24  H    0.118430
 Sum of Mulliken charges =   0.00000

 Dipole moment (field-independent basis, Debye):
    X=              0.0000    Y=              0.0000    Z=             -0.1934  Tot=              0.1934
 Quadrupole moment (field-independent basis, Debye-Ang):
   XX=            -71.8429   YY=            -64.5369   ZZ=            -72.3112
   XY=              0.0000   XZ=              0.0000   YZ=              0.0000

 Normal termination of Gaussian 09 at Sun Mar 19 02:32:04 2017.
