 Gaussian 09, Revision D.01,
 Gaussian 09:  EM64L-G09RevD.01 24-Apr-2013

 ----------------------------------------------
 #p b3lyp empiricaldispersion=gd3bj jun-cc-pVTZ
 ----------------------------------------------

 ---------------------
 benzene dimer 4.40425
 ---------------------
 Symbolic Z-matrix:
 Charge =  0 Multiplicity = 1

                         Standard orientation:
 ---------------------------------------------------------------------
 Center     Atomic      Atomic             Coordinates (Angstroms)
 Number     Number       Type             X           Y           Z
 ---------------------------------------------------------------------
      1          6           0       -1.391500    0.000000   -3.450000
      2          1           0       -2.471500    0.000000   -3.450000
      3          6           0       -0.695750    1.205074   -3.450000
      4          1           0       -1.235750    2.140382   -3.450000
      5          6           0       -0.695750   -1.205074   -3.450000
      6          1           0       -1.235750   -2.140382   -3.450000
      7          6           0        0.695750    1.205074   -3.450000
      8          1           0        1.235750    2.140382   -3.450000
      9          6           0        0.695750   -1.205074   -3.450000
     10          1           0        1.235750   -2.140382   -3.450000
     11          6           0        1.391500    0.000000   -3.450000
     12          1           0        2.471500    0.000000   -3.450000
     13          6           0        0.000000    0.000000    2.058500
     14          6           0        0.000000   -1.205074    2.754250
     15          1           0        0.000000   -2.140382    2.214250
     16          1           0        0.000000    0.000000    0.978500
     17          6           0        0.000000   -1.205074    4.145750
     18          1           0        0.000000   -2.140382    4.685750
     19          6           0        0.000000    0.000000    4.841500
     20          1           0        0.000000    0.000000    5.921500
     21          6           0        0.000000    1.205074    4.145750
     22          1           0        0.000000    2.140382    4.685750
     23          6           0        0.000000    1.205074    2.754250
     24          1           0        0.000000    2.140382    2.214250
 ---------------------------------------------------------------------

 SCF Done:  E(RB3LYP) =  -464.707849120     A.U. after   10 cycles

 The electronic state is 1-A1.
 Alpha  occ. eigenvalues --  -10.18220 -10.18194 -10.18191 -10.18134 -10.18132
 Alpha  occ. eigenvalues --  -10.18106 -10.17854 -10.17823 -10.17797 -10.17757
 Alpha  occ. eigenvalues --  -10.17754 -10.17688  -0.86120  -0.85734  -0.75251
 Alpha  occ. eigenvalues --   -0.75246  -0.74875  -0.74853  -0.60919  -0.60917
 Alpha  occ. eigenvalues --   -0.60543  -0.60528  -0.53112  -0.52730  -0.46723
 Alpha  occ. eigenvalues --   -0.46342  -0.45384  -0.45001  -0.42849  -0.42842
 Alpha  occ. eigenvalues --   -0.42484  -0.42441  -0.37567  -0.37176  -0.35104
 Alpha  occ. eigenvalues --   -0.35098  -0.34735  -0.34700  -0.26191  -0.26184
 Alpha  occ. eigenvalues --   -0.25813  -0.25788
 Alpha virt. eigenvalues --   -0.01905  -0.01893  -0.01515  -0.01508  -0.00762
 Alpha virt. eigenvalues --    0.00310   0.00817   0.01245   0.01881   0.01976
 Alpha virt. eigenvalues --    0.03351   0.03406   0.03926   0.04039   0.04369

 Mulliken charges:
               1
     1  C   -0.125778
     2  H    0.119174
     3  C   -0.116138
     4  H    0.118515
     5  C   -0.116138
     6  H    0.118515
     7  C   -0.116138
     8  H    0.118515
     9  C   -0.116138
    10  H    0.118515
    11  C   -0.125778
    12  H    0.119174
    13  C   -0.115157
    14  C   -0.137219
    15  H    0.110320
    16  H    0.150527
    17  C   -0.109286
    18  H    0.116743
    19  C   -0.106328
    20  H    0.113542
    21  C   -0.109286
    22  H    0.116743
    23  C   -0.137219
    24  H    0.110320
 Sum of Mulliken charges =   0.00000

 Dipole moment (field-independent basis, Debye):
    X=              0.0000    Y=              0.0000    Z=             -0.1412  Tot=              0.1412
 Quadrupole moment (field-independent basis, Debye-Ang):
   XX=            -72.2380   YY=            -64.8770   ZZ=            -72.6670
   XY=              0.0000   XZ=              0.0000   YZ=              0.0000

 Normal termination of Gaussian 09 at Sun Mar 19 01:01:21 2017.
