 Gaussian 09, Revision D.01,
 Gaussian 09:  EM64L-G09RevD.01 24-Apr-2013

 ------------------------------------------------
 #p pbe1pbe empiricaldispersion=gd3bj may-cc-pVQZ
 ------------------------------------------------

 ---------------------
 benzene dimer 3.90425
 ---------------------
 Symbolic Z-matrix:
 Charge =  0 Multiplicity = 1

                         Standard orientation:
 ---------------------------------------------------------------------
 Center     Atomic      Atomic             Coordinates (Angstroms)
 Number     Number       Type             X           Y           Z
 ---------------------------------------------------------------------
      1          6           0       -1.391500    0.000000   -3.200000
      2          1           0       -2.471500    0.000000   -3.200000
      3          6           0       -0.695750    1.205074   -3.200000
      4          1           0       -1.235750    2.140382   -3.200000
      5          6           0       -0.695750   -1.205074   -3.200000
      6          1           0       -1.235750   -2.140382   -3.200000
      7          6           0        0.695750    1.205074   -3.200000
      8          1           0        1.235750    2.140382   -3.200000
      9          6           0        0.695750   -1.205074   -3.200000
     10          1           0        1.235750   -2.140382   -3.200000
     11          6           0        1.391500    0.000000   -3.200000
     12          1           0        2.471500    0.000000   -3.200000
     13          6           0        0.000000    0.000000    1.808500
     14          6           0        0.000000   -1.205074    2.504250
     15          1           0        0.000000   -2.140382    1.964250
     16          1           0        0.000000    0.000000    0.728500
     17          6           0        0.000000   -1.205074    3.895750
     18          1           0        0.000000   -2.140382    4.435750
     19          6           0        0.000000    0.000000    4.591500
     20          1           0        0.000000    0.000000    5.671500
     21          6           0        0.000000    1.205074    3.895750
     22          1           0        0.000000    2.140382    4.435750
     23          6           0        0.000000    1.205074    2.504250
     24          1           0        0.000000    2.140382    1.964250
 ---------------------------------------------------------------------

 SCF Done:  E(RPBE1PBE) =  -464.133653604     A.U. after   10 cycles

 The electronic state is 1-A1.
 Alpha  occ. eigenvalues --  -10.23071 -10.23043 -10.23038 -10.22978 -10.22974
 Alpha  occ. eigenvalues --  -10.22945 -10.22580 -10.22545 -10.22511 -10.22470
 Alpha  occ. eigenvalues --  -10.22464 -10.22376  -0.88520  -0.87999  -0.77340
 Alpha  occ. eigenvalues --   -0.77332  -0.76836  -0.76803  -0.62577  -0.62575
 Alpha  occ. eigenvalues --   -0.62074  -0.62053  -0.54527  -0.54014  -0.47916
 Alpha  occ. eigenvalues --   -0.47408  -0.46566  -0.46051  -0.43843  -0.43831
 Alpha  occ. eigenvalues --   -0.43355  -0.43295  -0.38867  -0.38340  -0.35867
 Alpha  occ. eigenvalues --   -0.35859  -0.35375  -0.35322  -0.27085  -0.27076
 Alpha  occ. eigenvalues --   -0.26576  -0.26538
 Alpha virt. eigenvalues --   -0.01273  -0.01251  -0.00732  -0.00730  -0.00251
 Alpha virt. eigenvalues --    0.00922   0.01201   0.01697   0.02501   0.02586
 Alpha virt. eigenvalues --    0.03716   0.03771   0.04381   0.04502   0.04507

 Mulliken charges:
               1
     1  C   -0.204852
     2  H    0.179473
     3  C   -0.168351
     4  H    0.180828
     5  C   -0.168351
     6  H    0.180828
     7  C   -0.168351
     8  H    0.180828
     9  C   -0.168351
    10  H    0.180828
    11  C   -0.204852
    12  H    0.179473
    13  C   -0.203740
    14  C   -0.160322
    15  H    0.191352
    16  H    0.196994
    17  C   -0.194188
    18  H    0.184287
    19  C   -0.220175
    20  H    0.185511
    21  C   -0.194188
    22  H    0.184287
    23  C   -0.160322
    24  H    0.191352
 Sum of Mulliken charges =   0.00000

 Dipole moment (field-independent basis, Debye):
    X=              0.0000    Y=              0.0000    Z=             -0.1977  Tot=              0.1977
 Quadrupole moment (field-independent basis, Debye-Ang):
   XX=            -71.4526   YY=            -63.6823   ZZ=            -71.9161
   XY=              0.0000   XZ=              0.0000   YZ=              0.0000

 Normal termination of Gaussian 09 at Sun Mar 19 04:21:29 2017.
