 Gaussian 09, Revision D.01,
 Gaussian 09:  EM64L-G09RevD.01 24-Apr-2013

 ------------------------------------------
 #p b3lyp empiricaldispersion=gd3bj cc-pVTZ
 ------------------------------------------

 ----------------------------
 benzene dimer 2.495750000000
 ----------------------------
 Symbolic Z-matrix:
 Charge =  0 Multiplicity = 1

                         Standard orientation:
 ---------------------------------------------------------------------
 Center     Atomic      Atomic             Coordinates (Angstroms)
 Number     Number       Type             X           Y           Z
 ---------------------------------------------------------------------
      1          6           0       -1.391500    0.000000   -2.495750
      2          1           0       -2.471500    0.000000   -2.495750
      3          6           0       -0.695750    1.205074   -2.495750
      4          1           0       -1.235750    2.140382   -2.495750
      5          6           0       -0.695750   -1.205074   -2.495750
      6          1           0       -1.235750   -2.140382   -2.495750
      7          6           0        0.695750    1.205074   -2.495750
      8          1           0        1.235750    2.140382   -2.495750
      9          6           0        0.695750   -1.205074   -2.495750
     10          1           0        1.235750   -2.140382   -2.495750
     11          6           0        1.391500    0.000000   -2.495750
     12          1           0        2.471500    0.000000   -2.495750
     13          6           0        0.000000    0.000000    1.104250
     14          6           0        0.000000   -1.205074    1.800000
     15          1           0        0.000000   -2.140382    1.260000
     16          1           0        0.000000    0.000000    0.024250
     17          6           0        0.000000   -1.205074    3.191500
     18          1           0        0.000000   -2.140382    3.731500
     19          6           0        0.000000    0.000000    3.887250
     20          1           0        0.000000    0.000000    4.967250
     21          6           0        0.000000    1.205074    3.191500
     22          1           0        0.000000    2.140382    3.731500
     23          6           0        0.000000    1.205074    1.800000
     24          1           0        0.000000    2.140382    1.260000
 ---------------------------------------------------------------------

 SCF Done:  E(RB3LYP) =  -464.709474210     A.U. after   13 cycles

 The electronic state is 1-A1.
 Alpha  occ. eigenvalues --  -10.18301 -10.18279 -10.18268 -10.18220 -10.18207
 Alpha  occ. eigenvalues --  -10.18186 -10.17221 -10.17187 -10.17142 -10.17053
 Alpha  occ. eigenvalues --  -10.17047 -10.16761  -0.86264  -0.85048  -0.75380
 Alpha  occ. eigenvalues --   -0.75354  -0.74243  -0.74153  -0.61029  -0.61024
 Alpha  occ. eigenvalues --   -0.59915  -0.59868  -0.53232  -0.52113  -0.46828
 Alpha  occ. eigenvalues --   -0.45771  -0.45488  -0.44330  -0.42972  -0.42942
 Alpha  occ. eigenvalues --   -0.41962  -0.41895  -0.37613  -0.36535  -0.35215
 Alpha  occ. eigenvalues --   -0.35196  -0.34131  -0.33780  -0.26437  -0.26371
 Alpha  occ. eigenvalues --   -0.25193  -0.24982
 Alpha virt. eigenvalues --   -0.01802  -0.01735  -0.00515  -0.00509   0.03147
 Alpha virt. eigenvalues --    0.05120   0.05717   0.06906   0.08193   0.08474
 Alpha virt. eigenvalues --    0.09960   0.10252   0.11439   0.11853   0.12569

 Mulliken charges:
               1
     1  C   -0.098466
     2  H    0.106899
     3  C   -0.111027
     4  H    0.108078
     5  C   -0.111027
     6  H    0.108078
     7  C   -0.111027
     8  H    0.108078
     9  C   -0.111027
    10  H    0.108078
    11  C   -0.098466
    12  H    0.106899
    13  C   -0.054847
    14  C   -0.131155
    15  H    0.101846
    16  H    0.116725
    17  C   -0.101606
    18  H    0.102767
    19  C   -0.113681
    20  H    0.103024
    21  C   -0.101606
    22  H    0.102767
    23  C   -0.131155
    24  H    0.101846
 Sum of Mulliken charges =   0.00000

 Dipole moment (field-independent basis, Debye):
    X=              0.0000    Y=              0.0000    Z=             -0.4953  Tot=              0.4953
 Quadrupole moment (field-independent basis, Debye-Ang):
   XX=            -71.3874   YY=            -64.4552   ZZ=            -72.3771
   XY=              0.0000   XZ=              0.0000   YZ=              0.0000

 Normal termination of Gaussian 09 at Sun Mar 19 00:26:20 2017.
