 Gaussian 09, Revision D.01,
 Gaussian 09:  EM64L-G09RevD.01 24-Apr-2013

 ----------------------------------------------
 #p b3lyp empiricaldispersion=gd3bj may-cc-pVQZ
 ----------------------------------------------

 ---------------------
 benzene dimer 3.10425
 ---------------------
 Symbolic Z-matrix:
 Charge =  0 Multiplicity = 1

                         Standard orientation:
 ---------------------------------------------------------------------
 Center     Atomic      Atomic             Coordinates (Angstroms)
 Number     Number       Type             X           Y           Z
 ---------------------------------------------------------------------
      1          6           0       -1.391500    0.000000   -2.800000
      2          1           0       -2.471500    0.000000   -2.800000
      3          6           0       -0.695750    1.205074   -2.800000
      4          1           0       -1.235750    2.140382   -2.800000
      5          6           0       -0.695750   -1.205074   -2.800000
      6          1           0       -1.235750   -2.140382   -2.800000
      7          6           0        0.695750    1.205074   -2.800000
      8          1           0        1.235750    2.140382   -2.800000
      9          6           0        0.695750   -1.205074   -2.800000
     10          1           0        1.235750   -2.140382   -2.800000
     11          6           0        1.391500    0.000000   -2.800000
     12          1           0        2.471500    0.000000   -2.800000
     13          6           0        0.000000    0.000000    1.408500
     14          6           0        0.000000   -1.205074    2.104250
     15          1           0        0.000000   -2.140382    1.564250
     16          1           0        0.000000    0.000000    0.328500
     17          6           0        0.000000   -1.205074    3.495750
     18          1           0        0.000000   -2.140382    4.035750
     19          6           0        0.000000    0.000000    4.191500
     20          1           0        0.000000    0.000000    5.271500
     21          6           0        0.000000    1.205074    3.495750
     22          1           0        0.000000    2.140382    4.035750
     23          6           0        0.000000    1.205074    2.104250
     24          1           0        0.000000    2.140382    1.564250
 ---------------------------------------------------------------------

 SCF Done:  E(RB3LYP) =  -464.741995060     A.U. after    9 cycles

 The electronic state is 1-A1.
 Alpha  occ. eigenvalues --  -10.18058 -10.18033 -10.18026 -10.17972 -10.17964
 Alpha  occ. eigenvalues --  -10.17939 -10.17356 -10.17321 -10.17278 -10.17231
 Alpha  occ. eigenvalues --  -10.17224 -10.17073  -0.86232  -0.85470  -0.75363
 Alpha  occ. eigenvalues --   -0.75348  -0.74632  -0.74578  -0.61037  -0.61033
 Alpha  occ. eigenvalues --   -0.60311  -0.60277  -0.53255  -0.52518  -0.46846
 Alpha  occ. eigenvalues --   -0.46123  -0.45524  -0.44777  -0.42992  -0.42973
 Alpha  occ. eigenvalues --   -0.42291  -0.42225  -0.37741  -0.36975  -0.35246
 Alpha  occ. eigenvalues --   -0.35233  -0.34539  -0.34414  -0.26376  -0.26371
 Alpha  occ. eigenvalues --   -0.25626  -0.25537
 Alpha virt. eigenvalues --   -0.02118  -0.02057  -0.01294  -0.01277  -0.01031
 Alpha virt. eigenvalues --    0.00099   0.00397   0.00899   0.01781   0.02077
 Alpha virt. eigenvalues --    0.02915   0.02977   0.03735   0.03887   0.04080

 Mulliken charges:
               1
     1  C   -0.176196
     2  H    0.154595
     3  C   -0.145926
     4  H    0.156057
     5  C   -0.145926
     6  H    0.156057
     7  C   -0.145926
     8  H    0.156057
     9  C   -0.145926
    10  H    0.156057
    11  C   -0.176196
    12  H    0.154595
    13  C   -0.123033
    14  C   -0.147095
    15  H    0.172741
    16  H    0.118435
    17  C   -0.160675
    18  H    0.157365
    19  C   -0.193884
    20  H    0.156486
    21  C   -0.160675
    22  H    0.157365
    23  C   -0.147095
    24  H    0.172741
 Sum of Mulliken charges =   0.00000

 Dipole moment (field-independent basis, Debye):
    X=              0.0000    Y=              0.0000    Z=             -0.3180  Tot=              0.3180
 Quadrupole moment (field-independent basis, Debye-Ang):
   XX=            -72.0666   YY=            -64.9092   ZZ=            -72.7648
   XY=              0.0000   XZ=              0.0000   YZ=              0.0000

 1\1\GINC-HOLY2A14108\SP\RB3LYP\May-CC-pVQZ\C12H12\ROOT\19-Mar-2017\0\\
 #p b3lyp empiricaldispersion=gd3bj may-cc-pVQZ\\benzene dimer 3.10425\
 \0,1\C,0,1.3915,0.,3.10425\H,0,2.4715,0.,3.10425\C,0,0.69575,1.2050743
 494,3.10425\H,0,1.23575,2.1403817855,3.10425\C,0,0.69575,-1.2050743494
 ,3.10425\H,0,1.23575,-2.1403817855,3.10425\C,0,-0.69575,1.2050743494,3
 .10425\H,0,-1.23575,2.1403817855,3.10425\C,0,-0.69575,-1.2050743494,3.
 10425\H,0,-1.23575,-2.1403817855,3.10425\C,0,-1.3915,0.,3.10425\H,0,-2
 .4715,0.,3.10425\C,0,0.,0.,-1.10425\C,0,0.,-1.2050743494,-1.8\H,0,0.,-

 Normal termination of Gaussian 09 at Sun Mar 19 02:26:14 2017.
