 Gaussian 09, Revision D.01,
 Gaussian 09:  EM64L-G09RevD.01 24-Apr-2013

 -------------------------------------------
 #p pbe1pbe empiricaldispersion=gd3bj 6-31g*
 -------------------------------------------

 ---------------------
 benzene dimer 4.40425
 ---------------------
 Symbolic Z-matrix:
 Charge =  0 Multiplicity = 1

                         Standard orientation:
 ---------------------------------------------------------------------
 Center     Atomic      Atomic             Coordinates (Angstroms)
 Number     Number       Type             X           Y           Z
 ---------------------------------------------------------------------
      1          6           0       -1.391500    0.000000   -3.450000
      2          1           0       -2.471500    0.000000   -3.450000
      3          6           0       -0.695750    1.205074   -3.450000
      4          1           0       -1.235750    2.140382   -3.450000
      5          6           0       -0.695750   -1.205074   -3.450000
      6          1           0       -1.235750   -2.140382   -3.450000
      7          6           0        0.695750    1.205074   -3.450000
      8          1           0        1.235750    2.140382   -3.450000
      9          6           0        0.695750   -1.205074   -3.450000
     10          1           0        1.235750   -2.140382   -3.450000
     11          6           0        1.391500    0.000000   -3.450000
     12          1           0        2.471500    0.000000   -3.450000
     13          6           0        0.000000    0.000000    2.058500
     14          6           0        0.000000   -1.205074    2.754250
     15          1           0        0.000000   -2.140382    2.214250
     16          1           0        0.000000    0.000000    0.978500
     17          6           0        0.000000   -1.205074    4.145750
     18          1           0        0.000000   -2.140382    4.685750
     19          6           0        0.000000    0.000000    4.841500
     20          1           0        0.000000    0.000000    5.921500
     21          6           0        0.000000    1.205074    4.145750
     22          1           0        0.000000    2.140382    4.685750
     23          6           0        0.000000    1.205074    2.754250
     24          1           0        0.000000    2.140382    2.214250
 ---------------------------------------------------------------------

 SCF Done:  E(RPBE1PBE) =  -463.947481933     A.U. after   12 cycles

 The electronic state is 1-A1.
 Alpha  occ. eigenvalues --  -10.23646 -10.23618 -10.23615 -10.23557 -10.23554
 Alpha  occ. eigenvalues --  -10.23526 -10.23253 -10.23219 -10.23191 -10.23150
 Alpha  occ. eigenvalues --  -10.23146 -10.23072  -0.87645  -0.87229  -0.76577
 Alpha  occ. eigenvalues --   -0.76571  -0.76174  -0.76148  -0.61854  -0.61853
 Alpha  occ. eigenvalues --   -0.61452  -0.61435  -0.53806  -0.53396  -0.47453
 Alpha  occ. eigenvalues --   -0.47046  -0.45492  -0.45080  -0.43155  -0.43147
 Alpha  occ. eigenvalues --   -0.42764  -0.42715  -0.37710  -0.37289  -0.35134
 Alpha  occ. eigenvalues --   -0.35128  -0.34739  -0.34699  -0.25907  -0.25900
 Alpha  occ. eigenvalues --   -0.25502  -0.25477
 Alpha virt. eigenvalues --    0.00806   0.00811   0.01209   0.01231   0.10243
 Alpha virt. eigenvalues --    0.10643   0.15884   0.15906   0.16223   0.16354
 Alpha virt. eigenvalues --    0.17509   0.17919   0.19620   0.19632   0.19975

 Mulliken charges:
               1
     1  C   -0.168890
     2  H    0.169637
     3  C   -0.169394
     4  H    0.169107
     5  C   -0.169394
     6  H    0.169107
     7  C   -0.169394
     8  H    0.169107
     9  C   -0.169394
    10  H    0.169107
    11  C   -0.168890
    12  H    0.169637
    13  C   -0.171379
    14  C   -0.169128
    15  H    0.168096
    16  H    0.178020
    17  C   -0.168649
    18  H    0.167058
    19  C   -0.168880
    20  H    0.167143
    21  C   -0.168649
    22  H    0.167058
    23  C   -0.169128
    24  H    0.168096
 Sum of Mulliken charges =   0.00000

 Dipole moment (field-independent basis, Debye):
    X=              0.0000    Y=              0.0000    Z=             -0.1236  Tot=              0.1236
 Quadrupole moment (field-independent basis, Debye-Ang):
   XX=            -69.6218   YY=            -61.7911   ZZ=            -70.0849
   XY=              0.0000   XZ=              0.0000   YZ=              0.0000

 Normal termination of Gaussian 09 at Sun Mar 19 01:34:44 2017.
