 Gaussian 09, Revision D.01,
 Gaussian 09:  EM64L-G09RevD.01 24-Apr-2013

 -------------------------------------------
 #p pbe1pbe empiricaldispersion=gd3bj 6-31g*
 -------------------------------------------

 ---------------------
 benzene dimer 2.90425
 ---------------------
 Symbolic Z-matrix:
 Charge =  0 Multiplicity = 1

                         Standard orientation:
 ---------------------------------------------------------------------
 Center     Atomic      Atomic             Coordinates (Angstroms)
 Number     Number       Type             X           Y           Z
 ---------------------------------------------------------------------
      1          6           0       -1.391500    0.000000   -2.700000
      2          1           0       -2.471500    0.000000   -2.700000
      3          6           0       -0.695750    1.205074   -2.700000
      4          1           0       -1.235750    2.140382   -2.700000
      5          6           0       -0.695750   -1.205074   -2.700000
      6          1           0       -1.235750   -2.140382   -2.700000
      7          6           0        0.695750    1.205074   -2.700000
      8          1           0        1.235750    2.140382   -2.700000
      9          6           0        0.695750   -1.205074   -2.700000
     10          1           0        1.235750   -2.140382   -2.700000
     11          6           0        1.391500    0.000000   -2.700000
     12          1           0        2.471500    0.000000   -2.700000
     13          6           0        0.000000    0.000000    1.308500
     14          6           0        0.000000   -1.205074    2.004250
     15          1           0        0.000000   -2.140382    1.464250
     16          1           0        0.000000    0.000000    0.228500
     17          6           0        0.000000   -1.205074    3.395750
     18          1           0        0.000000   -2.140382    3.935750
     19          6           0        0.000000    0.000000    4.091500
     20          1           0        0.000000    0.000000    5.171500
     21          6           0        0.000000    1.205074    3.395750
     22          1           0        0.000000    2.140382    3.935750
     23          6           0        0.000000    1.205074    2.004250
     24          1           0        0.000000    2.140382    1.464250
 ---------------------------------------------------------------------

 SCF Done:  E(RPBE1PBE) =  -463.950990740     A.U. after   13 cycles

 The electronic state is 1-A1.
 Alpha  occ. eigenvalues --  -10.23890 -10.23865 -10.23855 -10.23804 -10.23792
 Alpha  occ. eigenvalues --  -10.23768 -10.22956 -10.22917 -10.22874 -10.22803
 Alpha  occ. eigenvalues --  -10.22797 -10.22567  -0.87913  -0.86889  -0.76828
 Alpha  occ. eigenvalues --   -0.76808  -0.75857  -0.75776  -0.62083  -0.62078
 Alpha  occ. eigenvalues --   -0.61121  -0.61068  -0.54030  -0.53050  -0.47653
 Alpha  occ. eigenvalues --   -0.46700  -0.45734  -0.44733  -0.43386  -0.43361
 Alpha  occ. eigenvalues --   -0.42460  -0.42374  -0.37980  -0.36963  -0.35357
 Alpha  occ. eigenvalues --   -0.35341  -0.34420  -0.34225  -0.26191  -0.26179
 Alpha  occ. eigenvalues --   -0.25200  -0.25097
 Alpha virt. eigenvalues --    0.00545   0.00558   0.01524   0.01582   0.10040
 Alpha virt. eigenvalues --    0.10961   0.15609   0.15775   0.16517   0.16581
 Alpha virt. eigenvalues --    0.17271   0.18247   0.19460   0.19463   0.20181

 Mulliken charges:
               1
     1  C   -0.168097
     2  H    0.172103
     3  C   -0.170939
     4  H    0.170965
     5  C   -0.170939
     6  H    0.170965
     7  C   -0.170939
     8  H    0.170965
     9  C   -0.170939
    10  H    0.170965
    11  C   -0.168097
    12  H    0.172103
    13  C   -0.174222
    14  C   -0.171789
    15  H    0.165113
    16  H    0.191933
    17  C   -0.169248
    18  H    0.165017
    19  C   -0.169346
    20  H    0.165329
    21  C   -0.169248
    22  H    0.165017
    23  C   -0.171789
    24  H    0.165113
 Sum of Mulliken charges =   0.00000

 Dipole moment (field-independent basis, Debye):
    X=              0.0000    Y=              0.0000    Z=             -0.4156  Tot=              0.4156
 Quadrupole moment (field-independent basis, Debye-Ang):
   XX=            -69.4644   YY=            -61.8653   ZZ=            -70.1354
   XY=              0.0000   XZ=              0.0000   YZ=              0.0000

 1\1\GINC-HOLY2A13206\SP\RPBE1PBE\6-31G(d)\C12H12\EKWAN\19-Mar-2017\0\\
 #p pbe1pbe empiricaldispersion=gd3bj 6-31g*\\benzene dimer 2.90425\\0,
 1\C,0,1.3915,0.,2.90425\H,0,2.4715,0.,2.90425\C,0,0.69575,1.2050743494
 ,2.90425\H,0,1.23575,2.1403817855,2.90425\C,0,0.69575,-1.2050743494,2.
 90425\H,0,1.23575,-2.1403817855,2.90425\C,0,-0.69575,1.2050743494,2.90
 425\H,0,-1.23575,2.1403817855,2.90425\C,0,-0.69575,-1.2050743494,2.904
 25\H,0,-1.23575,-2.1403817855,2.90425\C,0,-1.3915,0.,2.90425\H,0,-2.47
 15,0.,2.90425\C,0,0.,0.,-1.10425\C,0,0.,-1.2050743494,-1.8\H,0,0.,-2.1

 Normal termination of Gaussian 09 at Sun Mar 19 01:36:42 2017.
