 Gaussian 09, Revision D.01,
 Gaussian 09:  EM64L-G09RevD.01 24-Apr-2013

 ------------------------------------------------
 #p pbe1pbe empiricaldispersion=gd3bj may-cc-pVQZ
 ------------------------------------------------

 ---------------------
 benzene dimer 2.30425
 ---------------------
 Symbolic Z-matrix:
 Charge =  0 Multiplicity = 1

                         Standard orientation:
 ---------------------------------------------------------------------
 Center     Atomic      Atomic             Coordinates (Angstroms)
 Number     Number       Type             X           Y           Z
 ---------------------------------------------------------------------
      1          6           0       -1.391500    0.000000   -2.400000
      2          1           0       -2.471500    0.000000   -2.400000
      3          6           0       -0.695750    1.205074   -2.400000
      4          1           0       -1.235750    2.140382   -2.400000
      5          6           0       -0.695750   -1.205074   -2.400000
      6          1           0       -1.235750   -2.140382   -2.400000
      7          6           0        0.695750    1.205074   -2.400000
      8          1           0        1.235750    2.140382   -2.400000
      9          6           0        0.695750   -1.205074   -2.400000
     10          1           0        1.235750   -2.140382   -2.400000
     11          6           0        1.391500    0.000000   -2.400000
     12          1           0        2.471500    0.000000   -2.400000
     13          6           0        0.000000    0.000000    1.008500
     14          6           0        0.000000   -1.205074    1.704250
     15          1           0        0.000000   -2.140382    1.164250
     16          1           0        0.000000    0.000000   -0.071500
     17          6           0        0.000000   -1.205074    3.095750
     18          1           0        0.000000   -2.140382    3.635750
     19          6           0        0.000000    0.000000    3.791500
     20          1           0        0.000000    0.000000    4.871500
     21          6           0        0.000000    1.205074    3.095750
     22          1           0        0.000000    2.140382    3.635750
     23          6           0        0.000000    1.205074    1.704250
     24          1           0        0.000000    2.140382    1.164250
 ---------------------------------------------------------------------

 SCF Done:  E(RPBE1PBE) =  -464.136396969     A.U. after   10 cycles

 The electronic state is 1-A1.
 Alpha  occ. eigenvalues --  -10.23384 -10.23358 -10.23347 -10.23294 -10.23281
 Alpha  occ. eigenvalues --  -10.23256 -10.22150 -10.22116 -10.22060 -10.21958
 Alpha  occ. eigenvalues --  -10.21953 -10.21591  -0.88922  -0.87501  -0.77687
 Alpha  occ. eigenvalues --   -0.77656  -0.76379  -0.76272  -0.62880  -0.62875
 Alpha  occ. eigenvalues --   -0.61600  -0.61554  -0.54849  -0.53565  -0.48180
 Alpha  occ. eigenvalues --   -0.46998  -0.46881  -0.45553  -0.44161  -0.44124
 Alpha  occ. eigenvalues --   -0.43169  -0.42923  -0.38948  -0.37879  -0.36164
 Alpha  occ. eigenvalues --   -0.36140  -0.34918  -0.34438  -0.27626  -0.27509
 Alpha  occ. eigenvalues --   -0.26147  -0.25854
 Alpha virt. eigenvalues --   -0.01773  -0.01596  -0.00228  -0.00200  -0.00136
 Alpha virt. eigenvalues --    0.01123   0.01141   0.01690   0.02825   0.03000
 Alpha virt. eigenvalues --    0.03543   0.03694   0.04583   0.04845   0.05189

 Mulliken charges:
               1
     1  C   -0.177130
     2  H    0.158065
     3  C   -0.136501
     4  H    0.154203
     5  C   -0.136501
     6  H    0.154203
     7  C   -0.136501
     8  H    0.154203
     9  C   -0.136501
    10  H    0.154203
    11  C   -0.177130
    12  H    0.158065
    13  C   -0.479536
    14  C   -0.125928
    15  H    0.209779
    16  H    0.157118
    17  C   -0.138733
    18  H    0.182996
    19  C   -0.142794
    20  H    0.176302
    21  C   -0.138733
    22  H    0.182996
    23  C   -0.125928
    24  H    0.209779
 Sum of Mulliken charges =   0.00000

 Dipole moment (field-independent basis, Debye):
    X=              0.0000    Y=              0.0000    Z=             -0.6015  Tot=              0.6015
 Quadrupole moment (field-independent basis, Debye-Ang):
   XX=            -71.1325   YY=            -63.8021   ZZ=            -72.3032
   XY=              0.0000   XZ=              0.0000   YZ=              0.0000

 Normal termination of Gaussian 09 at Sun Mar 19 03:21:15 2017.
