 Gaussian 09, Revision D.01,
 Gaussian 09:  EM64L-G09RevD.01 24-Apr-2013

 ----------------------------------------------
 #p b3lyp empiricaldispersion=gd3bj jul-cc-pVDZ
 ----------------------------------------------

 ---------------------
 benzene dimer 2.50425
 ---------------------
 Symbolic Z-matrix:
 Charge =  0 Multiplicity = 1

                         Standard orientation:
 ---------------------------------------------------------------------
 Center     Atomic      Atomic             Coordinates (Angstroms)
 Number     Number       Type             X           Y           Z
 ---------------------------------------------------------------------
      1          6           0       -1.391500    0.000000   -2.500000
      2          1           0       -2.471500    0.000000   -2.500000
      3          6           0       -0.695750    1.205074   -2.500000
      4          1           0       -1.235750    2.140382   -2.500000
      5          6           0       -0.695750   -1.205074   -2.500000
      6          1           0       -1.235750   -2.140382   -2.500000
      7          6           0        0.695750    1.205074   -2.500000
      8          1           0        1.235750    2.140382   -2.500000
      9          6           0        0.695750   -1.205074   -2.500000
     10          1           0        1.235750   -2.140382   -2.500000
     11          6           0        1.391500    0.000000   -2.500000
     12          1           0        2.471500    0.000000   -2.500000
     13          6           0        0.000000    0.000000    1.108500
     14          6           0        0.000000   -1.205074    1.804250
     15          1           0        0.000000   -2.140382    1.264250
     16          1           0        0.000000    0.000000    0.028500
     17          6           0        0.000000   -1.205074    3.195750
     18          1           0        0.000000   -2.140382    3.735750
     19          6           0        0.000000    0.000000    3.891500
     20          1           0        0.000000    0.000000    4.971500
     21          6           0        0.000000    1.205074    3.195750
     22          1           0        0.000000    2.140382    3.735750
     23          6           0        0.000000    1.205074    1.804250
     24          1           0        0.000000    2.140382    1.264250
 ---------------------------------------------------------------------

 SCF Done:  E(RB3LYP) =  -464.585161602     A.U. after   11 cycles

 The electronic state is 1-A1.
 Alpha  occ. eigenvalues --  -10.19688 -10.19673 -10.19663 -10.19618 -10.19606
 Alpha  occ. eigenvalues --  -10.19585 -10.18680 -10.18653 -10.18608 -10.18519
 Alpha  occ. eigenvalues --  -10.18516 -10.18222  -0.86646  -0.85520  -0.75726
 Alpha  occ. eigenvalues --   -0.75702  -0.74674  -0.74590  -0.61269  -0.61265
 Alpha  occ. eigenvalues --   -0.60233  -0.60193  -0.53339  -0.52300  -0.46957
 Alpha  occ. eigenvalues --   -0.45971  -0.45623  -0.44552  -0.43078  -0.43048
 Alpha  occ. eigenvalues --   -0.42149  -0.42079  -0.37730  -0.36727  -0.35258
 Alpha  occ. eigenvalues --   -0.35239  -0.34250  -0.33916  -0.26565  -0.26487
 Alpha  occ. eigenvalues --   -0.25397  -0.25182
 Alpha virt. eigenvalues --   -0.02244  -0.02106  -0.00985  -0.00926  -0.00305
 Alpha virt. eigenvalues --    0.00976   0.01043   0.01670   0.02796   0.03054
 Alpha virt. eigenvalues --    0.03852   0.03854   0.05210   0.05473   0.05605

 Mulliken charges:
               1
     1  C    0.234370
     2  H   -0.211715
     3  C    0.206334
     4  H   -0.211832
     5  C    0.206334
     6  H   -0.211832
     7  C    0.206334
     8  H   -0.211832
     9  C    0.206334
    10  H   -0.211832
    11  C    0.234370
    12  H   -0.211715
    13  C    0.542341
    14  C    0.238499
    15  H   -0.191644
    16  H   -0.388450
    17  C    0.080372
    18  H   -0.199378
    19  C    0.169623
    20  H   -0.202529
    21  C    0.080372
    22  H   -0.199378
    23  C    0.238499
    24  H   -0.191644
 Sum of Mulliken charges =   0.00000

 Dipole moment (field-independent basis, Debye):
    X=              0.0000    Y=              0.0000    Z=             -0.4891  Tot=              0.4891
 Quadrupole moment (field-independent basis, Debye-Ang):
   XX=            -72.0845   YY=            -65.2739   ZZ=            -73.0887
   XY=              0.0000   XZ=              0.0000   YZ=              0.0000

 Normal termination of Gaussian 09 at Sun Mar 19 00:48:16 2017.
