 Gaussian 09, Revision D.01,
 Gaussian 09:  EM64L-G09RevD.01 24-Apr-2013

 ------------------------------------------
 #p b3lyp empiricaldispersion=gd3bj cc-pVDZ
 ------------------------------------------

 ---------------------
 benzene dimer 2.20425
 ---------------------
 Symbolic Z-matrix:
 Charge =  0 Multiplicity = 1

                         Standard orientation:
 ---------------------------------------------------------------------
 Center     Atomic      Atomic             Coordinates (Angstroms)
 Number     Number       Type             X           Y           Z
 ---------------------------------------------------------------------
      1          6           0       -1.391500    0.000000   -2.350000
      2          1           0       -2.471500    0.000000   -2.350000
      3          6           0       -0.695750    1.205074   -2.350000
      4          1           0       -1.235750    2.140382   -2.350000
      5          6           0       -0.695750   -1.205074   -2.350000
      6          1           0       -1.235750   -2.140382   -2.350000
      7          6           0        0.695750    1.205074   -2.350000
      8          1           0        1.235750    2.140382   -2.350000
      9          6           0        0.695750   -1.205074   -2.350000
     10          1           0        1.235750   -2.140382   -2.350000
     11          6           0        1.391500    0.000000   -2.350000
     12          1           0        2.471500    0.000000   -2.350000
     13          6           0        0.000000    0.000000    0.958500
     14          6           0        0.000000   -1.205074    1.654250
     15          1           0        0.000000   -2.140382    1.114250
     16          1           0        0.000000    0.000000   -0.121500
     17          6           0        0.000000   -1.205074    3.045750
     18          1           0        0.000000   -2.140382    3.585750
     19          6           0        0.000000    0.000000    3.741500
     20          1           0        0.000000    0.000000    4.821500
     21          6           0        0.000000    1.205074    3.045750
     22          1           0        0.000000    2.140382    3.585750
     23          6           0        0.000000    1.205074    1.654250
     24          1           0        0.000000    2.140382    1.114250
 ---------------------------------------------------------------------

 SCF Done:  E(RB3LYP) =  -464.566776021     A.U. after   13 cycles

 The electronic state is 1-A1.
 Alpha  occ. eigenvalues --  -10.19427 -10.19407 -10.19393 -10.19355 -10.19339
 Alpha  occ. eigenvalues --  -10.19323 -10.18063 -10.18036 -10.17993 -10.17855
 Alpha  occ. eigenvalues --  -10.17852 -10.17404  -0.86268  -0.84681  -0.75355
 Alpha  occ. eigenvalues --   -0.75322  -0.73916  -0.73802  -0.60910  -0.60906
 Alpha  occ. eigenvalues --   -0.59519  -0.59472  -0.52973  -0.51581  -0.46671
 Alpha  occ. eigenvalues --   -0.45416  -0.45205  -0.43746  -0.42757  -0.42721
 Alpha  occ. eigenvalues --   -0.41706  -0.41411  -0.37121  -0.35960  -0.34941
 Alpha  occ. eigenvalues --   -0.34920  -0.33587  -0.32964  -0.26246  -0.26112
 Alpha  occ. eigenvalues --   -0.24610  -0.24288
 Alpha virt. eigenvalues --   -0.01226  -0.01154   0.00396   0.00414   0.05141
 Alpha virt. eigenvalues --    0.07373   0.08476   0.09699   0.11228   0.11593
 Alpha virt. eigenvalues --    0.13176   0.13561   0.14781   0.14864   0.15212

 Mulliken charges:
               1
     1  C    0.036646
     2  H   -0.032415
     3  C    0.033122
     4  H   -0.033166
     5  C    0.033122
     6  H   -0.033166
     7  C    0.033122
     8  H   -0.033166
     9  C    0.033122
    10  H   -0.033166
    11  C    0.036646
    12  H   -0.032415
    13  C    0.086398
    14  C    0.017388
    15  H   -0.050644
    16  H   -0.016007
    17  C    0.039253
    18  H   -0.041054
    19  C    0.032189
    20  H   -0.040749
    21  C    0.039253
    22  H   -0.041054
    23  C    0.017388
    24  H   -0.050644
 Sum of Mulliken charges =   0.00000

 Dipole moment (field-independent basis, Debye):
    X=              0.0000    Y=              0.0000    Z=             -0.6570  Tot=              0.6570
 Quadrupole moment (field-independent basis, Debye-Ang):
   XX=            -70.5626   YY=            -64.3785   ZZ=            -71.6761
   XY=              0.0000   XZ=              0.0000   YZ=              0.0000

 Normal termination of Gaussian 09 at Sun Mar 19 00:43:41 2017.
