 Gaussian 09, Revision D.01,
 Gaussian 09:  EM64L-G09RevD.01 24-Apr-2013

 ---------------
 #p m062x 6-31g*
 ---------------

 ---------------------
 benzene dimer 2.20425
 ---------------------
 Symbolic Z-matrix:
 Charge =  0 Multiplicity = 1

                         Standard orientation:
 ---------------------------------------------------------------------
 Center     Atomic      Atomic             Coordinates (Angstroms)
 Number     Number       Type             X           Y           Z
 ---------------------------------------------------------------------
      1          6           0       -1.391500    0.000000   -2.350000
      2          1           0       -2.471500    0.000000   -2.350000
      3          6           0       -0.695750    1.205074   -2.350000
      4          1           0       -1.235750    2.140382   -2.350000
      5          6           0       -0.695750   -1.205074   -2.350000
      6          1           0       -1.235750   -2.140382   -2.350000
      7          6           0        0.695750    1.205074   -2.350000
      8          1           0        1.235750    2.140382   -2.350000
      9          6           0        0.695750   -1.205074   -2.350000
     10          1           0        1.235750   -2.140382   -2.350000
     11          6           0        1.391500    0.000000   -2.350000
     12          1           0        2.471500    0.000000   -2.350000
     13          6           0        0.000000    0.000000    0.958500
     14          6           0        0.000000   -1.205074    1.654250
     15          1           0        0.000000   -2.140382    1.114250
     16          1           0        0.000000    0.000000   -0.121500
     17          6           0        0.000000   -1.205074    3.045750
     18          1           0        0.000000   -2.140382    3.585750
     19          6           0        0.000000    0.000000    3.741500
     20          1           0        0.000000    0.000000    4.821500
     21          6           0        0.000000    1.205074    3.045750
     22          1           0        0.000000    2.140382    3.585750
     23          6           0        0.000000    1.205074    1.654250
     24          1           0        0.000000    2.140382    1.114250
 ---------------------------------------------------------------------

 SCF Done:  E(RM062X) =  -464.276526055     A.U. after   14 cycles

 The electronic state is 1-A1.
 Alpha  occ. eigenvalues --  -10.55299 -10.55270 -10.55252 -10.55191 -10.55170
 Alpha  occ. eigenvalues --  -10.55142 -10.53870 -10.53823 -10.53763 -10.53641
 Alpha  occ. eigenvalues --  -10.53636 -10.53162  -0.96010  -0.94342  -0.84323
 Alpha  occ. eigenvalues --   -0.84284  -0.82808  -0.82674  -0.68622  -0.68616
 Alpha  occ. eigenvalues --   -0.67147  -0.67094  -0.60210  -0.58732  -0.53576
 Alpha  occ. eigenvalues --   -0.52233  -0.51040  -0.49498  -0.48936  -0.48891
 Alpha  occ. eigenvalues --   -0.47902  -0.47512  -0.43281  -0.42215  -0.40285
 Alpha  occ. eigenvalues --   -0.40263  -0.38846  -0.38237  -0.30834  -0.30711
 Alpha  occ. eigenvalues --   -0.29116  -0.28778
 Alpha virt. eigenvalues --    0.03215   0.03286   0.04953   0.04961   0.13155
 Alpha virt. eigenvalues --    0.14927   0.18505   0.19181   0.20433   0.20821
 Alpha virt. eigenvalues --    0.21199   0.22740   0.22785   0.22891   0.23592

 Mulliken charges:
               1
     1  C   -0.159696
     2  H    0.168525
     3  C   -0.166033
     4  H    0.166837
     5  C   -0.166033
     6  H    0.166837
     7  C   -0.166033
     8  H    0.166837
     9  C   -0.166033
    10  H    0.166837
    11  C   -0.159696
    12  H    0.168525
    13  C   -0.129951
    14  C   -0.166803
    15  H    0.150425
    16  H    0.163606
    17  C   -0.164431
    18  H    0.156545
    19  C   -0.163069
    20  H    0.157067
    21  C   -0.164431
    22  H    0.156545
    23  C   -0.166803
    24  H    0.150425
 Sum of Mulliken charges =   0.00000

 Dipole moment (field-independent basis, Debye):
    X=              0.0000    Y=              0.0000    Z=             -0.6667  Tot=              0.6667
 Quadrupole moment (field-independent basis, Debye-Ang):
   XX=            -69.7699   YY=            -62.6280   ZZ=            -70.6928
   XY=              0.0000   XZ=              0.0000   YZ=              0.0000

 Normal termination of Gaussian 09 at Sun Mar 19 00:43:27 2017.
