 Gaussian 09, Revision D.01,
 Gaussian 09:  EM64L-G09RevD.01 24-Apr-2013

 ------------------------------------------
 #p b3lyp empiricaldispersion=gd3bj cc-pVTZ
 ------------------------------------------

 ---------------------
 benzene dimer 2.70425
 ---------------------
 Symbolic Z-matrix:
 Charge =  0 Multiplicity = 1

                         Standard orientation:
 ---------------------------------------------------------------------
 Center     Atomic      Atomic             Coordinates (Angstroms)
 Number     Number       Type             X           Y           Z
 ---------------------------------------------------------------------
      1          6           0       -1.391500    0.000000   -2.600000
      2          1           0       -2.471500    0.000000   -2.600000
      3          6           0       -0.695750    1.205074   -2.600000
      4          1           0       -1.235750    2.140382   -2.600000
      5          6           0       -0.695750   -1.205074   -2.600000
      6          1           0       -1.235750   -2.140382   -2.600000
      7          6           0        0.695750    1.205074   -2.600000
      8          1           0        1.235750    2.140382   -2.600000
      9          6           0        0.695750   -1.205074   -2.600000
     10          1           0        1.235750   -2.140382   -2.600000
     11          6           0        1.391500    0.000000   -2.600000
     12          1           0        2.471500    0.000000   -2.600000
     13          6           0        0.000000    0.000000    1.208500
     14          6           0        0.000000   -1.205074    1.904250
     15          1           0        0.000000   -2.140382    1.364250
     16          1           0        0.000000    0.000000    0.128500
     17          6           0        0.000000   -1.205074    3.295750
     18          1           0        0.000000   -2.140382    3.835750
     19          6           0        0.000000    0.000000    3.991500
     20          1           0        0.000000    0.000000    5.071500
     21          6           0        0.000000    1.205074    3.295750
     22          1           0        0.000000    2.140382    3.835750
     23          6           0        0.000000    1.205074    1.904250
     24          1           0        0.000000    2.140382    1.364250
 ---------------------------------------------------------------------

 SCF Done:  E(RB3LYP) =  -464.709112153     A.U. after   12 cycles

 The electronic state is 1-A1.
 Alpha  occ. eigenvalues --  -10.18243 -10.18221 -10.18211 -10.18162 -10.18150
 Alpha  occ. eigenvalues --  -10.18129 -10.17299 -10.17264 -10.17220 -10.17149
 Alpha  occ. eigenvalues --  -10.17142 -10.16915  -0.86183  -0.85138  -0.75312
 Alpha  occ. eigenvalues --   -0.75291  -0.74325  -0.74248  -0.60971  -0.60967
 Alpha  occ. eigenvalues --   -0.59999  -0.59955  -0.53170  -0.52188  -0.46779
 Alpha  occ. eigenvalues --   -0.45836  -0.45428  -0.44420  -0.42911  -0.42885
 Alpha  occ. eigenvalues --   -0.41973  -0.41955  -0.37609  -0.36617  -0.35160
 Alpha  occ. eigenvalues --   -0.35143  -0.34214  -0.33971  -0.26318  -0.26287
 Alpha  occ. eigenvalues --   -0.25269  -0.25117
 Alpha virt. eigenvalues --   -0.01699  -0.01660  -0.00615  -0.00610   0.03173
 Alpha virt. eigenvalues --    0.05020   0.05816   0.06930   0.08095   0.08331
 Alpha virt. eigenvalues --    0.09987   0.10144   0.11159   0.11435   0.12598

 Mulliken charges:
               1
     1  C   -0.101496
     2  H    0.107078
     3  C   -0.109896
     4  H    0.107848
     5  C   -0.109896
     6  H    0.107848
     7  C   -0.109896
     8  H    0.107848
     9  C   -0.109896
    10  H    0.107848
    11  C   -0.101496
    12  H    0.107078
    13  C   -0.069409
    14  C   -0.130969
    15  H    0.103139
    16  H    0.128545
    17  C   -0.101301
    18  H    0.103116
    19  C   -0.113459
    20  H    0.103381
    21  C   -0.101301
    22  H    0.103116
    23  C   -0.130969
    24  H    0.103139
 Sum of Mulliken charges =   0.00000

 Dipole moment (field-independent basis, Debye):
    X=              0.0000    Y=              0.0000    Z=             -0.4247  Tot=              0.4247
 Quadrupole moment (field-independent basis, Debye-Ang):
   XX=            -71.4415   YY=            -64.4166   ZZ=            -72.2862
   XY=              0.0000   XZ=              0.0000   YZ=              0.0000

 Normal termination of Gaussian 09 at Sun Mar 19 00:31:56 2017.
