 Gaussian 09, Revision D.01,
 Gaussian 09:  EM64L-G09RevD.01 24-Apr-2013

 ----------------------------------------------
 #p b3lyp empiricaldispersion=gd3bj jul-cc-pVDZ
 ----------------------------------------------

 ---------------------
 benzene dimer 5.40425
 ---------------------
 Symbolic Z-matrix:
 Charge =  0 Multiplicity = 1

                         Standard orientation:
 ---------------------------------------------------------------------
 Center     Atomic      Atomic             Coordinates (Angstroms)
 Number     Number       Type             X           Y           Z
 ---------------------------------------------------------------------
      1          6           0       -1.391500    0.000000   -3.950000
      2          1           0       -2.471500    0.000000   -3.950000
      3          6           0       -0.695750    1.205074   -3.950000
      4          1           0       -1.235750    2.140382   -3.950000
      5          6           0       -0.695750   -1.205074   -3.950000
      6          1           0       -1.235750   -2.140382   -3.950000
      7          6           0        0.695750    1.205074   -3.950000
      8          1           0        1.235750    2.140382   -3.950000
      9          6           0        0.695750   -1.205074   -3.950000
     10          1           0        1.235750   -2.140382   -3.950000
     11          6           0        1.391500    0.000000   -3.950000
     12          1           0        2.471500    0.000000   -3.950000
     13          6           0        0.000000    0.000000    2.558500
     14          6           0        0.000000   -1.205074    3.254250
     15          1           0        0.000000   -2.140382    2.714250
     16          1           0        0.000000    0.000000    1.478500
     17          6           0        0.000000   -1.205074    4.645750
     18          1           0        0.000000   -2.140382    5.185750
     19          6           0        0.000000    0.000000    5.341500
     20          1           0        0.000000    0.000000    6.421500
     21          6           0        0.000000    1.205074    4.645750
     22          1           0        0.000000    2.140382    5.185750
     23          6           0        0.000000    1.205074    3.254250
     24          1           0        0.000000    2.140382    2.714250
 ---------------------------------------------------------------------

 SCF Done:  E(RB3LYP) =  -464.580450079     A.U. after   10 cycles

 The electronic state is 1-A1.
 Alpha  occ. eigenvalues --  -10.19372 -10.19355 -10.19353 -10.19300 -10.19298
 Alpha  occ. eigenvalues --  -10.19273 -10.19134 -10.19112 -10.19096 -10.19054
 Alpha  occ. eigenvalues --  -10.19053 -10.19011  -0.86284  -0.86035  -0.75397
 Alpha  occ. eigenvalues --   -0.75394  -0.75154  -0.75142  -0.60973  -0.60973
 Alpha  occ. eigenvalues --   -0.60730  -0.60722  -0.53040  -0.52793  -0.46694
 Alpha  occ. eigenvalues --   -0.46448  -0.45319  -0.45072  -0.42775  -0.42771
 Alpha  occ. eigenvalues --   -0.42538  -0.42514  -0.37461  -0.37212  -0.34969
 Alpha  occ. eigenvalues --   -0.34966  -0.34730  -0.34711  -0.26093  -0.26089
 Alpha  occ. eigenvalues --   -0.25849  -0.25836
 Alpha virt. eigenvalues --   -0.01775  -0.01771  -0.01530  -0.01523  -0.00135
 Alpha virt. eigenvalues --    0.00858   0.01444   0.01755   0.02122   0.02179
 Alpha virt. eigenvalues --    0.03890   0.03949   0.04115   0.04292   0.05550

 Mulliken charges:
               1
     1  C    0.195329
     2  H   -0.199275
     3  C    0.201249
     4  H   -0.199167
     5  C    0.201249
     6  H   -0.199167
     7  C    0.201249
     8  H   -0.199167
     9  C    0.201249
    10  H   -0.199167
    11  C    0.195329
    12  H   -0.199275
    13  C    0.242090
    14  C    0.164833
    15  H   -0.198241
    16  H   -0.195809
    17  C    0.230919
    18  H   -0.199790
    19  C    0.156438
    20  H   -0.198595
    21  C    0.230919
    22  H   -0.199790
    23  C    0.164833
    24  H   -0.198241
 Sum of Mulliken charges =   0.00000

 Dipole moment (field-independent basis, Debye):
    X=              0.0000    Y=              0.0000    Z=             -0.0798  Tot=              0.0798
 Quadrupole moment (field-independent basis, Debye-Ang):
   XX=            -72.3667   YY=            -65.1256   ZZ=            -72.6732
   XY=              0.0000   XZ=              0.0000   YZ=              0.0000

 Normal termination of Gaussian 09 at Sun Mar 19 00:59:08 2017.
