 Gaussian 09, Revision D.01,
 Gaussian 09:  EM64L-G09RevD.01 24-Apr-2013

 ------------------------------------------
 #p b3lyp empiricaldispersion=gd3bj cc-pVQZ
 ------------------------------------------

 ---------------------
 benzene dimer 3.00425
 ---------------------
 Symbolic Z-matrix:
 Charge =  0 Multiplicity = 1

                         Standard orientation:
 ---------------------------------------------------------------------
 Center     Atomic      Atomic             Coordinates (Angstroms)
 Number     Number       Type             X           Y           Z
 ---------------------------------------------------------------------
      1          6           0       -1.391500    0.000000   -2.750000
      2          1           0       -2.471500    0.000000   -2.750000
      3          6           0       -0.695750    1.205074   -2.750000
      4          1           0       -1.235750    2.140382   -2.750000
      5          6           0       -0.695750   -1.205074   -2.750000
      6          1           0       -1.235750   -2.140382   -2.750000
      7          6           0        0.695750    1.205074   -2.750000
      8          1           0        1.235750    2.140382   -2.750000
      9          6           0        0.695750   -1.205074   -2.750000
     10          1           0        1.235750   -2.140382   -2.750000
     11          6           0        1.391500    0.000000   -2.750000
     12          1           0        2.471500    0.000000   -2.750000
     13          6           0        0.000000    0.000000    1.358500
     14          6           0        0.000000   -1.205074    2.054250
     15          1           0        0.000000   -2.140382    1.514250
     16          1           0        0.000000    0.000000    0.278500
     17          6           0        0.000000   -1.205074    3.445750
     18          1           0        0.000000   -2.140382    3.985750
     19          6           0        0.000000    0.000000    4.141500
     20          1           0        0.000000    0.000000    5.221500
     21          6           0        0.000000    1.205074    3.445750
     22          1           0        0.000000    2.140382    3.985750
     23          6           0        0.000000    1.205074    2.054250
     24          1           0        0.000000    2.140382    1.514250
 ---------------------------------------------------------------------

 SCF Done:  E(RB3LYP) =  -464.741479199     A.U. after   22 cycles

 The electronic state is 1-A1.
 Alpha  occ. eigenvalues --  -10.17992 -10.17967 -10.17959 -10.17906 -10.17897
 Alpha  occ. eigenvalues --  -10.17873 -10.17221 -10.17185 -10.17143 -10.17090
 Alpha  occ. eigenvalues --  -10.17083 -10.16914  -0.86171  -0.85333  -0.75306
 Alpha  occ. eigenvalues --   -0.75290  -0.74506  -0.74445  -0.60984  -0.60980
 Alpha  occ. eigenvalues --   -0.60190  -0.60153  -0.53206  -0.52400  -0.46804
 Alpha  occ. eigenvalues --   -0.46017  -0.45465  -0.44645  -0.42943  -0.42922
 Alpha  occ. eigenvalues --   -0.42176  -0.42111  -0.37680  -0.36846  -0.35197
 Alpha  occ. eigenvalues --   -0.35183  -0.34423  -0.34275  -0.26323  -0.26315
 Alpha  occ. eigenvalues --   -0.25496  -0.25396
 Alpha virt. eigenvalues --   -0.01859  -0.01826  -0.00984  -0.00983   0.01887
 Alpha virt. eigenvalues --    0.03616   0.04222   0.05242   0.06247   0.06410
 Alpha virt. eigenvalues --    0.07964   0.08044   0.09024   0.09046   0.10932

 Mulliken charges:
               1
     1  C   -0.110156
     2  H    0.114155
     3  C   -0.119172
     4  H    0.117664
     5  C   -0.119172
     6  H    0.117664
     7  C   -0.119172
     8  H    0.117664
     9  C   -0.119172
    10  H    0.117664
    11  C   -0.110156
    12  H    0.114155
    13  C   -0.063133
    14  C   -0.139511
    15  H    0.115709
    16  H    0.112234
    17  C   -0.117722
    18  H    0.113939
    19  C   -0.110232
    20  H    0.114334
    21  C   -0.117722
    22  H    0.113939
    23  C   -0.139511
    24  H    0.115709
 Sum of Mulliken charges =   0.00000

 Dipole moment (field-independent basis, Debye):
    X=              0.0000    Y=              0.0000    Z=             -0.3479  Tot=              0.3479
 Quadrupole moment (field-independent basis, Debye-Ang):
   XX=            -71.7499   YY=            -64.6123   ZZ=            -72.4142
   XY=              0.0000   XZ=              0.0000   YZ=              0.0000

 Normal termination of Gaussian 09 at Sun Mar 19 03:39:21 2017.
