 Gaussian 09, Revision D.01,
 Gaussian 09:  EM64L-G09RevD.01 24-Apr-2013

 -------------
 #p mp2 6-31g*
 -------------

 ---------------------
 benzene dimer 2.30425
 ---------------------
 Symbolic Z-matrix:
 Charge =  0 Multiplicity = 1

                         Standard orientation:
 ---------------------------------------------------------------------
 Center     Atomic      Atomic             Coordinates (Angstroms)
 Number     Number       Type             X           Y           Z
 ---------------------------------------------------------------------
      1          6           0       -1.391500    0.000000   -2.400000
      2          1           0       -2.471500    0.000000   -2.400000
      3          6           0       -0.695750    1.205074   -2.400000
      4          1           0       -1.235750    2.140382   -2.400000
      5          6           0       -0.695750   -1.205074   -2.400000
      6          1           0       -1.235750   -2.140382   -2.400000
      7          6           0        0.695750    1.205074   -2.400000
      8          1           0        1.235750    2.140382   -2.400000
      9          6           0        0.695750   -1.205074   -2.400000
     10          1           0        1.235750   -2.140382   -2.400000
     11          6           0        1.391500    0.000000   -2.400000
     12          1           0        2.471500    0.000000   -2.400000
     13          6           0        0.000000    0.000000    1.008500
     14          6           0        0.000000   -1.205074    1.704250
     15          1           0        0.000000   -2.140382    1.164250
     16          1           0        0.000000    0.000000   -0.071500
     17          6           0        0.000000   -1.205074    3.095750
     18          1           0        0.000000   -2.140382    3.635750
     19          6           0        0.000000    0.000000    3.791500
     20          1           0        0.000000    0.000000    4.871500
     21          6           0        0.000000    1.205074    3.095750
     22          1           0        0.000000    2.140382    3.635750
     23          6           0        0.000000    1.205074    1.704250
     24          1           0        0.000000    2.140382    1.164250
 ---------------------------------------------------------------------

 SCF Done:  E(RHF) =  -461.403655134     A.U. after   12 cycles
 E2 =    -0.1516250594D+01 EUMP2 =    -0.46291990572778D+03

 The electronic state is 1-A1.
 Alpha  occ. eigenvalues --  -11.23765 -11.23715 -11.23697 -11.23594 -11.23574
 Alpha  occ. eigenvalues --  -11.23524 -11.22325 -11.22271 -11.22149 -11.22014
 Alpha  occ. eigenvalues --  -11.22002 -11.21542  -1.15217  -1.13525  -1.01588
 Alpha  occ. eigenvalues --   -1.01548  -1.00040  -0.99915  -0.82430  -0.82426
 Alpha  occ. eigenvalues --   -0.80921  -0.80884  -0.71073  -0.69560  -0.64466
 Alpha  occ. eigenvalues --   -0.63072  -0.61805  -0.60234  -0.58896  -0.58853
 Alpha  occ. eigenvalues --   -0.57591  -0.57431  -0.50473  -0.49481  -0.49455
 Alpha  occ. eigenvalues --   -0.48683  -0.48012  -0.47039  -0.33859  -0.33734
 Alpha  occ. eigenvalues --   -0.32162  -0.31744
 Alpha virt. eigenvalues --    0.14038   0.14112   0.15783   0.15820   0.22873
 Alpha virt. eigenvalues --    0.24780   0.28378   0.29020   0.30363   0.30903
 Alpha virt. eigenvalues --    0.32815   0.33011   0.33334   0.33908   0.34113

 Mulliken charges:
               1
     1  C   -0.199179
     2  H    0.205711
     3  C   -0.204977
     4  H    0.204173
     5  C   -0.204977
     6  H    0.204173
     7  C   -0.204977
     8  H    0.204173
     9  C   -0.204977
    10  H    0.204173
    11  C   -0.199179
    12  H    0.205711
    13  C   -0.199465
    14  C   -0.211579
    15  H    0.192959
    16  H    0.244529
    17  C   -0.198960
    18  H    0.194468
    19  C   -0.203526
    20  H    0.194840
    21  C   -0.198960
    22  H    0.194468
    23  C   -0.211579
    24  H    0.192959
 Sum of Mulliken charges =   0.00000

 Dipole moment (field-independent basis, Debye):
    X=              0.0000    Y=              0.0000    Z=             -0.6541  Tot=              0.6541
 Quadrupole moment (field-independent basis, Debye-Ang):
   XX=            -70.8735   YY=            -63.0071   ZZ=            -72.0823
   XY=              0.0000   XZ=              0.0000   YZ=              0.0000

 Normal termination of Gaussian 09 at Sun Mar 19 00:43:53 2017.
