 Gaussian 09, Revision D.01,
 Gaussian 09:  EM64L-G09RevD.01 24-Apr-2013

 ----------------------------------------------
 #p b3lyp empiricaldispersion=gd3bj jul-cc-pVDZ
 ----------------------------------------------

 ---------------------
 benzene dimer 1.90425
 ---------------------
 Symbolic Z-matrix:
 Charge =  0 Multiplicity = 1

                         Standard orientation:
 ---------------------------------------------------------------------
 Center     Atomic      Atomic             Coordinates (Angstroms)
 Number     Number       Type             X           Y           Z
 ---------------------------------------------------------------------
      1          6           0       -1.391500    0.000000   -2.200000
      2          1           0       -2.471500    0.000000   -2.200000
      3          6           0       -0.695750    1.205074   -2.200000
      4          1           0       -1.235750    2.140382   -2.200000
      5          6           0       -0.695750   -1.205074   -2.200000
      6          1           0       -1.235750   -2.140382   -2.200000
      7          6           0        0.695750    1.205074   -2.200000
      8          1           0        1.235750    2.140382   -2.200000
      9          6           0        0.695750   -1.205074   -2.200000
     10          1           0        1.235750   -2.140382   -2.200000
     11          6           0        1.391500    0.000000   -2.200000
     12          1           0        2.471500    0.000000   -2.200000
     13          6           0        0.000000    0.000000    0.808500
     14          6           0        0.000000   -1.205074    1.504250
     15          1           0        0.000000   -2.140382    0.964250
     16          1           0        0.000000    0.000000   -0.271500
     17          6           0        0.000000   -1.205074    2.895750
     18          1           0        0.000000   -2.140382    3.435750
     19          6           0        0.000000    0.000000    3.591500
     20          1           0        0.000000    0.000000    4.671500
     21          6           0        0.000000    1.205074    2.895750
     22          1           0        0.000000    2.140382    3.435750
     23          6           0        0.000000    1.205074    1.504250
     24          1           0        0.000000    2.140382    0.964250
 ---------------------------------------------------------------------

 SCF Done:  E(RB3LYP) =  -464.579650557     A.U. after   11 cycles

 The electronic state is 1-A1.
 Alpha  occ. eigenvalues --  -10.19876 -10.19857 -10.19851 -10.19802 -10.19796
 Alpha  occ. eigenvalues --  -10.19772 -10.18359 -10.18342 -10.18272 -10.18088
 Alpha  occ. eigenvalues --  -10.18088 -10.17397  -0.87076  -0.85128  -0.76006
 Alpha  occ. eigenvalues --   -0.75963  -0.74331  -0.74205  -0.61487  -0.61485
 Alpha  occ. eigenvalues --   -0.59895  -0.59892  -0.53666  -0.52058  -0.47143
 Alpha  occ. eigenvalues --   -0.45843  -0.45835  -0.44190  -0.43332  -0.43287
 Alpha  occ. eigenvalues --   -0.42519  -0.41769  -0.37333  -0.36409  -0.35472
 Alpha  occ. eigenvalues --   -0.35444  -0.33912  -0.32817  -0.27157  -0.26817
 Alpha  occ. eigenvalues --   -0.25090  -0.24519
 Alpha virt. eigenvalues --   -0.02672  -0.02368  -0.00564  -0.00426  -0.00366
 Alpha virt. eigenvalues --    0.01018   0.01073   0.01644   0.02974   0.03148
 Alpha virt. eigenvalues --    0.03716   0.03809   0.05290   0.05670   0.05839

 Mulliken charges:
               1
     1  C    0.270718
     2  H   -0.216663
     3  C    0.209963
     4  H   -0.217811
     5  C    0.209963
     6  H   -0.217811
     7  C    0.209963
     8  H   -0.217811
     9  C    0.209963
    10  H   -0.217811
    11  C    0.270718
    12  H   -0.216663
    13  C    1.011594
    14  C    0.163549
    15  H   -0.194305
    16  H   -0.686048
    17  C    0.040369
    18  H   -0.200937
    19  C    0.185397
    20  H   -0.205012
    21  C    0.040369
    22  H   -0.200937
    23  C    0.163549
    24  H   -0.194305
 Sum of Mulliken charges =   0.00000

 Dipole moment (field-independent basis, Debye):
    X=              0.0000    Y=              0.0000    Z=             -0.7640  Tot=              0.7640
 Quadrupole moment (field-independent basis, Debye-Ang):
   XX=            -71.7753   YY=            -65.3611   ZZ=            -73.6906
   XY=              0.0000   XZ=              0.0000   YZ=              0.0000

 Normal termination of Gaussian 09 at Sun Mar 19 00:41:45 2017.
