 Gaussian 09, Revision D.01,
 Gaussian 09:  EM64L-G09RevD.01 24-Apr-2013

 ---------------
 #p m062x 6-31g*
 ---------------

 ---------------------
 benzene dimer 2.10425
 ---------------------
 Symbolic Z-matrix:
 Charge =  0 Multiplicity = 1

                         Standard orientation:
 ---------------------------------------------------------------------
 Center     Atomic      Atomic             Coordinates (Angstroms)
 Number     Number       Type             X           Y           Z
 ---------------------------------------------------------------------
      1          6           0       -1.391500    0.000000   -2.300000
      2          1           0       -2.471500    0.000000   -2.300000
      3          6           0       -0.695750    1.205074   -2.300000
      4          1           0       -1.235750    2.140382   -2.300000
      5          6           0       -0.695750   -1.205074   -2.300000
      6          1           0       -1.235750   -2.140382   -2.300000
      7          6           0        0.695750    1.205074   -2.300000
      8          1           0        1.235750    2.140382   -2.300000
      9          6           0        0.695750   -1.205074   -2.300000
     10          1           0        1.235750   -2.140382   -2.300000
     11          6           0        1.391500    0.000000   -2.300000
     12          1           0        2.471500    0.000000   -2.300000
     13          6           0        0.000000    0.000000    0.908500
     14          6           0        0.000000   -1.205074    1.604250
     15          1           0        0.000000   -2.140382    1.064250
     16          1           0        0.000000    0.000000   -0.171500
     17          6           0        0.000000   -1.205074    2.995750
     18          1           0        0.000000   -2.140382    3.535750
     19          6           0        0.000000    0.000000    3.691500
     20          1           0        0.000000    0.000000    4.771500
     21          6           0        0.000000    1.205074    2.995750
     22          1           0        0.000000    2.140382    3.535750
     23          6           0        0.000000    1.205074    1.604250
     24          1           0        0.000000    2.140382    1.064250
 ---------------------------------------------------------------------

 SCF Done:  E(RM062X) =  -464.275757688     A.U. after   13 cycles

 The electronic state is 1-A1.
 Alpha  occ. eigenvalues --  -10.55343 -10.55314 -10.55296 -10.55236 -10.55214
 Alpha  occ. eigenvalues --  -10.55186 -10.53809 -10.53764 -10.53701 -10.53565
 Alpha  occ. eigenvalues --  -10.53560 -10.53019  -0.96098  -0.94267  -0.84385
 Alpha  occ. eigenvalues --   -0.84342  -0.82742  -0.82599  -0.68670  -0.68664
 Alpha  occ. eigenvalues --   -0.67080  -0.67035  -0.60276  -0.58684  -0.53614
 Alpha  occ. eigenvalues --   -0.52201  -0.51090  -0.49427  -0.48991  -0.48943
 Alpha  occ. eigenvalues --   -0.47986  -0.47452  -0.43170  -0.42153  -0.40332
 Alpha  occ. eigenvalues --   -0.40308  -0.38779  -0.38049  -0.30956  -0.30788
 Alpha  occ. eigenvalues --   -0.29056  -0.28653
 Alpha virt. eigenvalues --    0.03115   0.03210   0.05035   0.05040   0.13084
 Alpha virt. eigenvalues --    0.15066   0.18381   0.19151   0.20524   0.20934
 Alpha virt. eigenvalues --    0.21126   0.22707   0.22859   0.22959   0.23649

 Mulliken charges:
               1
     1  C   -0.159152
     2  H    0.169065
     3  C   -0.166336
     4  H    0.167315
     5  C   -0.166336
     6  H    0.167315
     7  C   -0.166336
     8  H    0.167315
     9  C   -0.166336
    10  H    0.167315
    11  C   -0.159152
    12  H    0.169065
    13  C   -0.124691
    14  C   -0.167377
    15  H    0.148849
    16  H    0.161761
    17  C   -0.164687
    18  H    0.156055
    19  C   -0.163138
    20  H    0.156645
    21  C   -0.164687
    22  H    0.156055
    23  C   -0.167377
    24  H    0.148849
 Sum of Mulliken charges =   0.00000

 Dipole moment (field-independent basis, Debye):
    X=              0.0000    Y=              0.0000    Z=             -0.7223  Tot=              0.7223
 Quadrupole moment (field-independent basis, Debye-Ang):
   XX=            -69.7303   YY=            -62.6651   ZZ=            -70.7630
   XY=              0.0000   XZ=              0.0000   YZ=              0.0000

 Normal termination of Gaussian 09 at Sun Mar 19 00:41:40 2017.
