 Gaussian 09, Revision D.01,
 Gaussian 09:  EM64L-G09RevD.01 24-Apr-2013

 --------------------
 #p m062x may-cc-pVQZ
 --------------------

 ---------------------
 benzene dimer 2.60425
 ---------------------
 Symbolic Z-matrix:
 Charge =  0 Multiplicity = 1

                         Standard orientation:
 ---------------------------------------------------------------------
 Center     Atomic      Atomic             Coordinates (Angstroms)
 Number     Number       Type             X           Y           Z
 ---------------------------------------------------------------------
      1          6           0       -1.391500    0.000000   -2.550000
      2          1           0       -2.471500    0.000000   -2.550000
      3          6           0       -0.695750    1.205074   -2.550000
      4          1           0       -1.235750    2.140382   -2.550000
      5          6           0       -0.695750   -1.205074   -2.550000
      6          1           0       -1.235750   -2.140382   -2.550000
      7          6           0        0.695750    1.205074   -2.550000
      8          1           0        1.235750    2.140382   -2.550000
      9          6           0        0.695750   -1.205074   -2.550000
     10          1           0        1.235750   -2.140382   -2.550000
     11          6           0        1.391500    0.000000   -2.550000
     12          1           0        2.471500    0.000000   -2.550000
     13          6           0        0.000000    0.000000    1.158500
     14          6           0        0.000000   -1.205074    1.854250
     15          1           0        0.000000   -2.140382    1.314250
     16          1           0        0.000000    0.000000    0.078500
     17          6           0        0.000000   -1.205074    3.245750
     18          1           0        0.000000   -2.140382    3.785750
     19          6           0        0.000000    0.000000    3.941500
     20          1           0        0.000000    0.000000    5.021500
     21          6           0        0.000000    1.205074    3.245750
     22          1           0        0.000000    2.140382    3.785750
     23          6           0        0.000000    1.205074    1.854250
     24          1           0        0.000000    2.140382    1.314250
 ---------------------------------------------------------------------

 SCF Done:  E(RM062X) =  -464.478510528     A.U. after   10 cycles

 The electronic state is 1-A1.
 Alpha  occ. eigenvalues --  -10.54768 -10.54736 -10.54724 -10.54652 -10.54639
 Alpha  occ. eigenvalues --  -10.54606 -10.53754 -10.53708 -10.53648 -10.53581
 Alpha  occ. eigenvalues --  -10.53572 -10.53343  -0.96558  -0.95443  -0.84857
 Alpha  occ. eigenvalues --   -0.84832  -0.83805  -0.83719  -0.69146  -0.69141
 Alpha  occ. eigenvalues --   -0.68106  -0.68061  -0.60676  -0.59628  -0.53914
 Alpha  occ. eigenvalues --   -0.52915  -0.51840  -0.50766  -0.49400  -0.49368
 Alpha  occ. eigenvalues --   -0.48475  -0.48396  -0.44462  -0.43516  -0.40798
 Alpha  occ. eigenvalues --   -0.40780  -0.39785  -0.39518  -0.31556  -0.31497
 Alpha  occ. eigenvalues --   -0.30403  -0.30208
 Alpha virt. eigenvalues --   -0.00315   0.00612   0.00806   0.01022   0.01143
 Alpha virt. eigenvalues --    0.01218   0.02197   0.02306   0.02337   0.02351
 Alpha virt. eigenvalues --    0.02913   0.03112   0.03876   0.04200   0.04266

 Mulliken charges:
               1
     1  C   -0.477761
     2  H    0.478552
     3  C   -0.483063
     4  H    0.477899
     5  C   -0.483063
     6  H    0.477899
     7  C   -0.483063
     8  H    0.477899
     9  C   -0.483063
    10  H    0.477899
    11  C   -0.477761
    12  H    0.478552
    13  C   -0.677801
    14  C   -0.393006
    15  H    0.489159
    16  H    0.430613
    17  C   -0.408465
    18  H    0.452824
    19  C   -0.443213
    20  H    0.428447
    21  C   -0.408465
    22  H    0.452824
    23  C   -0.393006
    24  H    0.489159
 Sum of Mulliken charges =   0.00000

 Dipole moment (field-independent basis, Debye):
    X=              0.0000    Y=              0.0000    Z=             -0.4732  Tot=              0.4732
 Quadrupole moment (field-independent basis, Debye-Ang):
   XX=            -71.7142   YY=            -64.1861   ZZ=            -72.3749
   XY=              0.0000   XZ=              0.0000   YZ=              0.0000

 Normal termination of Gaussian 09 at Sun Mar 19 03:15:35 2017.
