 Gaussian 09, Revision D.01,
 Gaussian 09:  EM64L-G09RevD.01 24-Apr-2013

 ----------------------------------------------
 #p b3lyp empiricaldispersion=gd3bj may-cc-pVQZ
 ----------------------------------------------

 ---------------------
 benzene dimer 2.60425
 ---------------------
 Symbolic Z-matrix:
 Charge =  0 Multiplicity = 1

                         Standard orientation:
 ---------------------------------------------------------------------
 Center     Atomic      Atomic             Coordinates (Angstroms)
 Number     Number       Type             X           Y           Z
 ---------------------------------------------------------------------
      1          6           0       -1.391500    0.000000   -2.550000
      2          1           0       -2.471500    0.000000   -2.550000
      3          6           0       -0.695750    1.205074   -2.550000
      4          1           0       -1.235750    2.140382   -2.550000
      5          6           0       -0.695750   -1.205074   -2.550000
      6          1           0       -1.235750   -2.140382   -2.550000
      7          6           0        0.695750    1.205074   -2.550000
      8          1           0        1.235750    2.140382   -2.550000
      9          6           0        0.695750   -1.205074   -2.550000
     10          1           0        1.235750   -2.140382   -2.550000
     11          6           0        1.391500    0.000000   -2.550000
     12          1           0        2.471500    0.000000   -2.550000
     13          6           0        0.000000    0.000000    1.158500
     14          6           0        0.000000   -1.205074    1.854250
     15          1           0        0.000000   -2.140382    1.314250
     16          1           0        0.000000    0.000000    0.078500
     17          6           0        0.000000   -1.205074    3.245750
     18          1           0        0.000000   -2.140382    3.785750
     19          6           0        0.000000    0.000000    3.941500
     20          1           0        0.000000    0.000000    5.021500
     21          6           0        0.000000    1.205074    3.245750
     22          1           0        0.000000    2.140382    3.785750
     23          6           0        0.000000    1.205074    1.854250
     24          1           0        0.000000    2.140382    1.314250
 ---------------------------------------------------------------------

 SCF Done:  E(RB3LYP) =  -464.743387285     A.U. after   10 cycles

 The electronic state is 1-A1.
 Alpha  occ. eigenvalues --  -10.18160 -10.18136 -10.18126 -10.18074 -10.18064
 Alpha  occ. eigenvalues --  -10.18040 -10.17207 -10.17173 -10.17125 -10.17052
 Alpha  occ. eigenvalues --  -10.17046 -10.16798  -0.86365  -0.85299  -0.75479
 Alpha  occ. eigenvalues --   -0.75456  -0.74475  -0.74395  -0.61137  -0.61133
 Alpha  occ. eigenvalues --   -0.60149  -0.60106  -0.53359  -0.52364  -0.46933
 Alpha  occ. eigenvalues --   -0.45982  -0.45628  -0.44605  -0.43098  -0.43070
 Alpha  occ. eigenvalues --   -0.42164  -0.42143  -0.37803  -0.36816  -0.35345
 Alpha  occ. eigenvalues --   -0.35326  -0.34382  -0.34101  -0.26569  -0.26515
 Alpha  occ. eigenvalues --   -0.25478  -0.25295
 Alpha virt. eigenvalues --   -0.02291  -0.02174  -0.01110  -0.01065  -0.01039
 Alpha virt. eigenvalues --    0.00176   0.00375   0.00895   0.01890   0.02192
 Alpha virt. eigenvalues --    0.02849   0.02957   0.03797   0.03957   0.04308

 Mulliken charges:
               1
     1  C   -0.180807
     2  H    0.156440
     3  C   -0.139192
     4  H    0.151577
     5  C   -0.139192
     6  H    0.151577
     7  C   -0.139192
     8  H    0.151577
     9  C   -0.139192
    10  H    0.151577
    11  C   -0.180807
    12  H    0.156440
    13  C   -0.185962
    14  C   -0.125131
    15  H    0.177096
    16  H    0.102076
    17  C   -0.148270
    18  H    0.158092
    19  C   -0.193357
    20  H    0.152861
    21  C   -0.148270
    22  H    0.158092
    23  C   -0.125131
    24  H    0.177096
 Sum of Mulliken charges =   0.00000

 Dipole moment (field-independent basis, Debye):
    X=              0.0000    Y=              0.0000    Z=             -0.4571  Tot=              0.4571
 Quadrupole moment (field-independent basis, Debye-Ang):
   XX=            -71.9513   YY=            -64.9469   ZZ=            -72.9213
   XY=              0.0000   XZ=              0.0000   YZ=              0.0000

 Normal termination of Gaussian 09 at Sun Mar 19 03:00:58 2017.
