 Gaussian 09, Revision D.01,
 Gaussian 09:  EM64L-G09RevD.01 24-Apr-2013

 ----------------------------------------------
 #p b3lyp empiricaldispersion=gd3bj may-cc-pVQZ
 ----------------------------------------------

 ---------------------
 benzene dimer 3.40425
 ---------------------
 Symbolic Z-matrix:
 Charge =  0 Multiplicity = 1

                         Standard orientation:
 ---------------------------------------------------------------------
 Center     Atomic      Atomic             Coordinates (Angstroms)
 Number     Number       Type             X           Y           Z
 ---------------------------------------------------------------------
      1          6           0       -1.391500    0.000000   -2.950000
      2          1           0       -2.471500    0.000000   -2.950000
      3          6           0       -0.695750    1.205074   -2.950000
      4          1           0       -1.235750    2.140382   -2.950000
      5          6           0       -0.695750   -1.205074   -2.950000
      6          1           0       -1.235750   -2.140382   -2.950000
      7          6           0        0.695750    1.205074   -2.950000
      8          1           0        1.235750    2.140382   -2.950000
      9          6           0        0.695750   -1.205074   -2.950000
     10          1           0        1.235750   -2.140382   -2.950000
     11          6           0        1.391500    0.000000   -2.950000
     12          1           0        2.471500    0.000000   -2.950000
     13          6           0        0.000000    0.000000    1.558500
     14          6           0        0.000000   -1.205074    2.254250
     15          1           0        0.000000   -2.140382    1.714250
     16          1           0        0.000000    0.000000    0.478500
     17          6           0        0.000000   -1.205074    3.645750
     18          1           0        0.000000   -2.140382    4.185750
     19          6           0        0.000000    0.000000    4.341500
     20          1           0        0.000000    0.000000    5.421500
     21          6           0        0.000000    1.205074    3.645750
     22          1           0        0.000000    2.140382    4.185750
     23          6           0        0.000000    1.205074    2.254250
     24          1           0        0.000000    2.140382    1.714250
 ---------------------------------------------------------------------

 SCF Done:  E(RB3LYP) =  -464.741184767     A.U. after   10 cycles

 The electronic state is 1-A1.
 Alpha  occ. eigenvalues --  -10.18014 -10.17988 -10.17982 -10.17927 -10.17921
 Alpha  occ. eigenvalues --  -10.17895 -10.17418 -10.17383 -10.17344 -10.17304
 Alpha  occ. eigenvalues --  -10.17297 -10.17177  -0.86181  -0.85541  -0.75315
 Alpha  occ. eigenvalues --   -0.75303  -0.74698  -0.74654  -0.60994  -0.60991
 Alpha  occ. eigenvalues --   -0.60380  -0.60352  -0.53212  -0.52588  -0.46808
 Alpha  occ. eigenvalues --   -0.46192  -0.45479  -0.44849  -0.42948  -0.42933
 Alpha  occ. eigenvalues --   -0.42354  -0.42285  -0.37691  -0.37043  -0.35204
 Alpha  occ. eigenvalues --   -0.35194  -0.34605  -0.34520  -0.26314  -0.26310
 Alpha  occ. eigenvalues --   -0.25688  -0.25627
 Alpha virt. eigenvalues --   -0.02050  -0.02009  -0.01369  -0.01362  -0.01035
 Alpha virt. eigenvalues --    0.00065   0.00415   0.00900   0.01722   0.01988
 Alpha virt. eigenvalues --    0.02942   0.02989   0.03702   0.03862   0.03957

 Mulliken charges:
               1
     1  C   -0.183734
     2  H    0.156580
     3  C   -0.144498
     4  H    0.157398
     5  C   -0.144498
     6  H    0.157398
     7  C   -0.144498
     8  H    0.157398
     9  C   -0.144498
    10  H    0.157398
    11  C   -0.183734
    12  H    0.156580
    13  C   -0.132004
    14  C   -0.150744
    15  H    0.170098
    16  H    0.148866
    17  C   -0.166516
    18  H    0.157764
    19  C   -0.193740
    20  H    0.158380
    21  C   -0.166516
    22  H    0.157764
    23  C   -0.150744
    24  H    0.170098
 Sum of Mulliken charges =   0.00000

 Dipole moment (field-independent basis, Debye):
    X=              0.0000    Y=              0.0000    Z=             -0.2599  Tot=              0.2599
 Quadrupole moment (field-independent basis, Debye-Ang):
   XX=            -72.1090   YY=            -64.8938   ZZ=            -72.7143
   XY=              0.0000   XZ=              0.0000   YZ=              0.0000

 Normal termination of Gaussian 09 at Sun Mar 19 03:40:39 2017.
