 Gaussian 09, Revision D.01,
 Gaussian 09:  EM64L-G09RevD.01 24-Apr-2013

 -----------------------------------------
 #p b3lyp empiricaldispersion=gd3bj 6-31g*
 -----------------------------------------

 ---------------------
 benzene dimer 2.40425
 ---------------------
 Symbolic Z-matrix:
 Charge =  0 Multiplicity = 1

                         Standard orientation:
 ---------------------------------------------------------------------
 Center     Atomic      Atomic             Coordinates (Angstroms)
 Number     Number       Type             X           Y           Z
 ---------------------------------------------------------------------
      1          6           0       -1.391500    0.000000   -2.450000
      2          1           0       -2.471500    0.000000   -2.450000
      3          6           0       -0.695750    1.205074   -2.450000
      4          1           0       -1.235750    2.140382   -2.450000
      5          6           0       -0.695750   -1.205074   -2.450000
      6          1           0       -1.235750   -2.140382   -2.450000
      7          6           0        0.695750    1.205074   -2.450000
      8          1           0        1.235750    2.140382   -2.450000
      9          6           0        0.695750   -1.205074   -2.450000
     10          1           0        1.235750   -2.140382   -2.450000
     11          6           0        1.391500    0.000000   -2.450000
     12          1           0        2.471500    0.000000   -2.450000
     13          6           0        0.000000    0.000000    1.058500
     14          6           0        0.000000   -1.205074    1.754250
     15          1           0        0.000000   -2.140382    1.214250
     16          1           0        0.000000    0.000000   -0.021500
     17          6           0        0.000000   -1.205074    3.145750
     18          1           0        0.000000   -2.140382    3.685750
     19          6           0        0.000000    0.000000    3.841500
     20          1           0        0.000000    0.000000    4.921500
     21          6           0        0.000000    1.205074    3.145750
     22          1           0        0.000000    2.140382    3.685750
     23          6           0        0.000000    1.205074    1.754250
     24          1           0        0.000000    2.140382    1.214250
 ---------------------------------------------------------------------

 SCF Done:  E(RB3LYP) =  -464.540477876     A.U. after   13 cycles

 The electronic state is 1-A1.
 Alpha  occ. eigenvalues --  -10.19071 -10.19049 -10.19036 -10.18992 -10.18976
 Alpha  occ. eigenvalues --  -10.18955 -10.17816 -10.17779 -10.17737 -10.17622
 Alpha  occ. eigenvalues --  -10.17618 -10.17220  -0.85485  -0.84053  -0.74699
 Alpha  occ. eigenvalues --   -0.74670  -0.73371  -0.73258  -0.60390  -0.60385
 Alpha  occ. eigenvalues --   -0.59089  -0.59026  -0.52607  -0.51294  -0.46454
 Alpha  occ. eigenvalues --   -0.45219  -0.44458  -0.43093  -0.42355  -0.42322
 Alpha  occ. eigenvalues --   -0.41174  -0.41100  -0.36580  -0.35306  -0.34551
 Alpha  occ. eigenvalues --   -0.34531  -0.33281  -0.32815  -0.25363  -0.25321
 Alpha  occ. eigenvalues --   -0.23942  -0.23728
 Alpha virt. eigenvalues --   -0.00127  -0.00100   0.01267   0.01326   0.08791
 Alpha virt. eigenvalues --    0.10314   0.13928   0.14338   0.15452   0.15969
 Alpha virt. eigenvalues --    0.16119   0.17459   0.18047   0.18118   0.18970

 Mulliken charges:
               1
     1  C   -0.126378
     2  H    0.132821
     3  C   -0.130480
     4  H    0.131603
     5  C   -0.130480
     6  H    0.131603
     7  C   -0.130480
     8  H    0.131603
     9  C   -0.130480
    10  H    0.131603
    11  C   -0.126378
    12  H    0.132821
    13  C   -0.126578
    14  C   -0.136792
    15  H    0.120958
    16  H    0.158611
    17  C   -0.129094
    18  H    0.122860
    19  C   -0.128494
    20  H    0.123214
    21  C   -0.129094
    22  H    0.122860
    23  C   -0.136792
    24  H    0.120958
 Sum of Mulliken charges =   0.00000

 Dipole moment (field-independent basis, Debye):
    X=              0.0000    Y=              0.0000    Z=             -0.6330  Tot=              0.6330
 Quadrupole moment (field-independent basis, Debye-Ang):
   XX=            -69.5725   YY=            -63.0097   ZZ=            -70.4073
   XY=              0.0000   XZ=              0.0000   YZ=              0.0000

 Normal termination of Gaussian 09 at Sun Mar 19 00:42:59 2017.
