 Gaussian 09, Revision D.01,
 Gaussian 09:  EM64L-G09RevD.01 24-Apr-2013

 ---------------
 #p m062x 6-31g*
 ---------------

 ---------------------
 benzene dimer 4.90425
 ---------------------
 Symbolic Z-matrix:
 Charge =  0 Multiplicity = 1

                         Standard orientation:
 ---------------------------------------------------------------------
 Center     Atomic      Atomic             Coordinates (Angstroms)
 Number     Number       Type             X           Y           Z
 ---------------------------------------------------------------------
      1          6           0       -1.391500    0.000000   -3.700000
      2          1           0       -2.471500    0.000000   -3.700000
      3          6           0       -0.695750    1.205074   -3.700000
      4          1           0       -1.235750    2.140382   -3.700000
      5          6           0       -0.695750   -1.205074   -3.700000
      6          1           0       -1.235750   -2.140382   -3.700000
      7          6           0        0.695750    1.205074   -3.700000
      8          1           0        1.235750    2.140382   -3.700000
      9          6           0        0.695750   -1.205074   -3.700000
     10          1           0        1.235750   -2.140382   -3.700000
     11          6           0        1.391500    0.000000   -3.700000
     12          1           0        2.471500    0.000000   -3.700000
     13          6           0        0.000000    0.000000    2.308500
     14          6           0        0.000000   -1.205074    3.004250
     15          1           0        0.000000   -2.140382    2.464250
     16          1           0        0.000000    0.000000    1.228500
     17          6           0        0.000000   -1.205074    4.395750
     18          1           0        0.000000   -2.140382    4.935750
     19          6           0        0.000000    0.000000    5.091500
     20          1           0        0.000000    0.000000    6.171500
     21          6           0        0.000000    1.205074    4.395750
     22          1           0        0.000000    2.140382    4.935750
     23          6           0        0.000000    1.205074    3.004250
     24          1           0        0.000000    2.140382    2.464250
 ---------------------------------------------------------------------

 SCF Done:  E(RM062X) =  -464.272859002     A.U. after   13 cycles

 The electronic state is 1-A1.
 Alpha  occ. eigenvalues --  -10.54784 -10.54749 -10.54746 -10.54670 -10.54668
 Alpha  occ. eigenvalues --  -10.54632 -10.54475 -10.54436 -10.54413 -10.54352
 Alpha  occ. eigenvalues --  -10.54351 -10.54288  -0.95373  -0.95050  -0.83773
 Alpha  occ. eigenvalues --   -0.83768  -0.83459  -0.83439  -0.68141  -0.68139
 Alpha  occ. eigenvalues --   -0.67826  -0.67813  -0.59699  -0.59378  -0.53162
 Alpha  occ. eigenvalues --   -0.52842  -0.50531  -0.50210  -0.48434  -0.48426
 Alpha  occ. eigenvalues --   -0.48127  -0.48091  -0.43199  -0.42874  -0.39815
 Alpha  occ. eigenvalues --   -0.39812  -0.39505  -0.39480  -0.30043  -0.30038
 Alpha  occ. eigenvalues --   -0.29727  -0.29708
 Alpha virt. eigenvalues --    0.03927   0.03930   0.04243   0.04258   0.13702
 Alpha virt. eigenvalues --    0.14018   0.19434   0.19452   0.19704   0.19812
 Alpha virt. eigenvalues --    0.21803   0.22123   0.23073   0.23082   0.23358

 Mulliken charges:
               1
     1  C   -0.162534
     2  H    0.162925
     3  C   -0.162627
     4  H    0.162443
     5  C   -0.162627
     6  H    0.162443
     7  C   -0.162627
     8  H    0.162443
     9  C   -0.162627
    10  H    0.162443
    11  C   -0.162534
    12  H    0.162925
    13  C   -0.164182
    14  C   -0.162454
    15  H    0.161840
    16  H    0.169198
    17  C   -0.162101
    18  H    0.160896
    19  C   -0.162431
    20  H    0.161006
    21  C   -0.162101
    22  H    0.160896
    23  C   -0.162454
    24  H    0.161840
 Sum of Mulliken charges =   0.00000

 Dipole moment (field-independent basis, Debye):
    X=              0.0000    Y=              0.0000    Z=             -0.0884  Tot=              0.0884
 Quadrupole moment (field-independent basis, Debye-Ang):
   XX=            -70.1244   YY=            -62.3992   ZZ=            -70.5199
   XY=              0.0000   XZ=              0.0000   YZ=              0.0000

 Normal termination of Gaussian 09 at Sun Mar 19 00:59:04 2017.
