 Gaussian 09, Revision D.01,
 Gaussian 09:  EM64L-G09RevD.01 24-Apr-2013

 -------------
 #p mp2 6-31g*
 -------------

 ---------------------
 benzene dimer 3.40425
 ---------------------
 Symbolic Z-matrix:
 Charge =  0 Multiplicity = 1

                         Standard orientation:
 ---------------------------------------------------------------------
 Center     Atomic      Atomic             Coordinates (Angstroms)
 Number     Number       Type             X           Y           Z
 ---------------------------------------------------------------------
      1          6           0       -1.391500    0.000000   -2.950000
      2          1           0       -2.471500    0.000000   -2.950000
      3          6           0       -0.695750    1.205074   -2.950000
      4          1           0       -1.235750    2.140382   -2.950000
      5          6           0       -0.695750   -1.205074   -2.950000
      6          1           0       -1.235750   -2.140382   -2.950000
      7          6           0        0.695750    1.205074   -2.950000
      8          1           0        1.235750    2.140382   -2.950000
      9          6           0        0.695750   -1.205074   -2.950000
     10          1           0        1.235750   -2.140382   -2.950000
     11          6           0        1.391500    0.000000   -2.950000
     12          1           0        2.471500    0.000000   -2.950000
     13          6           0        0.000000    0.000000    1.558500
     14          6           0        0.000000   -1.205074    2.254250
     15          1           0        0.000000   -2.140382    1.714250
     16          1           0        0.000000    0.000000    0.478500
     17          6           0        0.000000   -1.205074    3.645750
     18          1           0        0.000000   -2.140382    4.185750
     19          6           0        0.000000    0.000000    4.341500
     20          1           0        0.000000    0.000000    5.421500
     21          6           0        0.000000    1.205074    3.645750
     22          1           0        0.000000    2.140382    4.185750
     23          6           0        0.000000    1.205074    2.254250
     24          1           0        0.000000    2.140382    1.714250
 ---------------------------------------------------------------------

 SCF Done:  E(RHF) =  -461.406723622     A.U. after   11 cycles
 E2 =    -0.1510239728D+01 EUMP2 =    -0.46291696335000D+03

 The electronic state is 1-A1.
 Alpha  occ. eigenvalues --  -11.23459 -11.23405 -11.23398 -11.23284 -11.23277
 Alpha  occ. eigenvalues --  -11.23221 -11.22734 -11.22673 -11.22602 -11.22528
 Alpha  occ. eigenvalues --  -11.22518 -11.22359  -1.14783  -1.14005  -1.01227
 Alpha  occ. eigenvalues --   -1.01213  -1.00481  -1.00425  -0.82126  -0.82123
 Alpha  occ. eigenvalues --   -0.81381  -0.81349  -0.70730  -0.69971  -0.64207
 Alpha  occ. eigenvalues --   -0.63462  -0.61489  -0.60721  -0.58571  -0.58554
 Alpha  occ. eigenvalues --   -0.57851  -0.57759  -0.49944  -0.49186  -0.49174
 Alpha  occ. eigenvalues --   -0.49129  -0.48459  -0.48321  -0.33292  -0.33272
 Alpha  occ. eigenvalues --   -0.32557  -0.32469
 Alpha virt. eigenvalues --    0.14529   0.14542   0.15262   0.15323   0.23261
 Alpha virt. eigenvalues --    0.23951   0.29116   0.29191   0.29751   0.29803
 Alpha virt. eigenvalues --    0.33013   0.33027   0.33501   0.33574   0.33608

 Mulliken charges:
               1
     1  C   -0.200073
     2  H    0.202412
     3  C   -0.201785
     4  H    0.201468
     5  C   -0.201785
     6  H    0.201468
     7  C   -0.201785
     8  H    0.201468
     9  C   -0.201785
    10  H    0.201468
    11  C   -0.200073
    12  H    0.202412
    13  C   -0.208229
    14  C   -0.201915
    15  H    0.198329
    16  H    0.220671
    17  C   -0.199717
    18  H    0.197231
    19  C   -0.201086
    20  H    0.197379
    21  C   -0.199717
    22  H    0.197231
    23  C   -0.201915
    24  H    0.198329
 Sum of Mulliken charges =   0.00000

 Dipole moment (field-independent basis, Debye):
    X=              0.0000    Y=              0.0000    Z=             -0.2828  Tot=              0.2828
 Quadrupole moment (field-independent basis, Debye-Ang):
   XX=            -71.0888   YY=            -62.8334   ZZ=            -71.7176
   XY=              0.0000   XZ=              0.0000   YZ=              0.0000

 Normal termination of Gaussian 09 at Sun Mar 19 00:51:38 2017.
