 Gaussian 09, Revision D.01,
 Gaussian 09:  EM64L-G09RevD.01 24-Apr-2013

 ---------------
 #p m062x 6-31g*
 ---------------

 ---------------------
 benzene dimer 3.40425
 ---------------------
 Symbolic Z-matrix:
 Charge =  0 Multiplicity = 1

                         Standard orientation:
 ---------------------------------------------------------------------
 Center     Atomic      Atomic             Coordinates (Angstroms)
 Number     Number       Type             X           Y           Z
 ---------------------------------------------------------------------
      1          6           0       -1.391500    0.000000   -2.950000
      2          1           0       -2.471500    0.000000   -2.950000
      3          6           0       -0.695750    1.205074   -2.950000
      4          1           0       -1.235750    2.140382   -2.950000
      5          6           0       -0.695750   -1.205074   -2.950000
      6          1           0       -1.235750   -2.140382   -2.950000
      7          6           0        0.695750    1.205074   -2.950000
      8          1           0        1.235750    2.140382   -2.950000
      9          6           0        0.695750   -1.205074   -2.950000
     10          1           0        1.235750   -2.140382   -2.950000
     11          6           0        1.391500    0.000000   -2.950000
     12          1           0        2.471500    0.000000   -2.950000
     13          6           0        0.000000    0.000000    1.558500
     14          6           0        0.000000   -1.205074    2.254250
     15          1           0        0.000000   -2.140382    1.714250
     16          1           0        0.000000    0.000000    0.478500
     17          6           0        0.000000   -1.205074    3.645750
     18          1           0        0.000000   -2.140382    4.185750
     19          6           0        0.000000    0.000000    4.341500
     20          1           0        0.000000    0.000000    5.421500
     21          6           0        0.000000    1.205074    3.645750
     22          1           0        0.000000    2.140382    4.185750
     23          6           0        0.000000    1.205074    2.254250
     24          1           0        0.000000    2.140382    1.714250
 ---------------------------------------------------------------------

 SCF Done:  E(RM062X) =  -464.274315620     A.U. after   14 cycles

 The electronic state is 1-A1.
 Alpha  occ. eigenvalues --  -10.54946 -10.54913 -10.54907 -10.54835 -10.54828
 Alpha  occ. eigenvalues --  -10.54794 -10.54276 -10.54232 -10.54184 -10.54133
 Alpha  occ. eigenvalues --  -10.54125 -10.53980  -0.95542  -0.94825  -0.83937
 Alpha  occ. eigenvalues --   -0.83924  -0.83248  -0.83194  -0.68291  -0.68287
 Alpha  occ. eigenvalues --   -0.67606  -0.67570  -0.59845  -0.59146  -0.53295
 Alpha  occ. eigenvalues --   -0.52606  -0.50689  -0.49981  -0.48585  -0.48567
 Alpha  occ. eigenvalues --   -0.47924  -0.47837  -0.43382  -0.42657  -0.39963
 Alpha  occ. eigenvalues --   -0.39953  -0.39293  -0.39201  -0.30221  -0.30206
 Alpha  occ. eigenvalues --   -0.29526  -0.29468
 Alpha virt. eigenvalues --    0.03755   0.03764   0.04448   0.04490   0.13576
 Alpha virt. eigenvalues --    0.14175   0.19296   0.19366   0.19794   0.19871
 Alpha virt. eigenvalues --    0.21641   0.22342   0.22966   0.22976   0.23379

 Mulliken charges:
               1
     1  C   -0.162465
     2  H    0.164641
     3  C   -0.163818
     4  H    0.163644
     5  C   -0.163818
     6  H    0.163644
     7  C   -0.163818
     8  H    0.163644
     9  C   -0.163818
    10  H    0.163644
    11  C   -0.162465
    12  H    0.164641
    13  C   -0.167603
    14  C   -0.163173
    15  H    0.160230
    16  H    0.178556
    17  C   -0.162321
    18  H    0.159488
    19  C   -0.162822
    20  H    0.159766
    21  C   -0.162321
    22  H    0.159488
    23  C   -0.163173
    24  H    0.160230
 Sum of Mulliken charges =   0.00000

 Dipole moment (field-independent basis, Debye):
    X=              0.0000    Y=              0.0000    Z=             -0.2651  Tot=              0.2651
 Quadrupole moment (field-independent basis, Debye-Ang):
   XX=            -70.0307   YY=            -62.4446   ZZ=            -70.5879
   XY=              0.0000   XZ=              0.0000   YZ=              0.0000

 Normal termination of Gaussian 09 at Sun Mar 19 00:53:28 2017.
