 Gaussian 09, Revision D.01,
 Gaussian 09:  EM64L-G09RevD.01 24-Apr-2013

 -------------------------------------------
 #p pbe1pbe empiricaldispersion=gd3bj 6-31g*
 -------------------------------------------

 ---------------------
 benzene dimer 2.50425
 ---------------------
 Symbolic Z-matrix:
 Charge =  0 Multiplicity = 1

                         Standard orientation:
 ---------------------------------------------------------------------
 Center     Atomic      Atomic             Coordinates (Angstroms)
 Number     Number       Type             X           Y           Z
 ---------------------------------------------------------------------
      1          6           0       -1.391500    0.000000   -2.500000
      2          1           0       -2.471500    0.000000   -2.500000
      3          6           0       -0.695750    1.205074   -2.500000
      4          1           0       -1.235750    2.140382   -2.500000
      5          6           0       -0.695750   -1.205074   -2.500000
      6          1           0       -1.235750   -2.140382   -2.500000
      7          6           0        0.695750    1.205074   -2.500000
      8          1           0        1.235750    2.140382   -2.500000
      9          6           0        0.695750   -1.205074   -2.500000
     10          1           0        1.235750   -2.140382   -2.500000
     11          6           0        1.391500    0.000000   -2.500000
     12          1           0        2.471500    0.000000   -2.500000
     13          6           0        0.000000    0.000000    1.108500
     14          6           0        0.000000   -1.205074    1.804250
     15          1           0        0.000000   -2.140382    1.264250
     16          1           0        0.000000    0.000000    0.028500
     17          6           0        0.000000   -1.205074    3.195750
     18          1           0        0.000000   -2.140382    3.735750
     19          6           0        0.000000    0.000000    3.891500
     20          1           0        0.000000    0.000000    4.971500
     21          6           0        0.000000    1.205074    3.195750
     22          1           0        0.000000    2.140382    3.735750
     23          6           0        0.000000    1.205074    1.804250
     24          1           0        0.000000    2.140382    1.264250
 ---------------------------------------------------------------------

 SCF Done:  E(RPBE1PBE) =  -463.952134214     A.U. after   13 cycles

 The electronic state is 1-A1.
 Alpha  occ. eigenvalues --  -10.24019 -10.23995 -10.23981 -10.23934 -10.23917
 Alpha  occ. eigenvalues --  -10.23895 -10.22799 -10.22759 -10.22715 -10.22609
 Alpha  occ. eigenvalues --  -10.22604 -10.22252  -0.88078  -0.86706  -0.76968
 Alpha  occ. eigenvalues --   -0.76939  -0.75689  -0.75579  -0.62204  -0.62199
 Alpha  occ. eigenvalues --   -0.60946  -0.60883  -0.54158  -0.52884  -0.47756
 Alpha  occ. eigenvalues --   -0.46546  -0.45863  -0.44547  -0.43512  -0.43478
 Alpha  occ. eigenvalues --   -0.42333  -0.42301  -0.38026  -0.36794  -0.35476
 Alpha  occ. eigenvalues --   -0.35455  -0.34251  -0.33878  -0.26388  -0.26367
 Alpha  occ. eigenvalues --   -0.25042  -0.24855
 Alpha virt. eigenvalues --    0.00377   0.00401   0.01707   0.01768   0.09897
 Alpha virt. eigenvalues --    0.11274   0.15347   0.15706   0.16732   0.17105
 Alpha virt. eigenvalues --    0.17132   0.18421   0.19379   0.19415   0.20250

 Mulliken charges:
               1
     1  C   -0.167548
     2  H    0.173384
     3  C   -0.171795
     4  H    0.172029
     5  C   -0.171795
     6  H    0.172029
     7  C   -0.171795
     8  H    0.172029
     9  C   -0.171795
    10  H    0.172029
    11  C   -0.167548
    12  H    0.173384
    13  C   -0.165133
    14  C   -0.174913
    15  H    0.162186
    16  H    0.195295
    17  C   -0.170125
    18  H    0.163966
    19  C   -0.169353
    20  H    0.164352
    21  C   -0.170125
    22  H    0.163966
    23  C   -0.174913
    24  H    0.162186
 Sum of Mulliken charges =   0.00000

 Dipole moment (field-independent basis, Debye):
    X=              0.0000    Y=              0.0000    Z=             -0.5704  Tot=              0.5704
 Quadrupole moment (field-independent basis, Debye-Ang):
   XX=            -69.3719   YY=            -61.9304   ZZ=            -70.2117
   XY=              0.0000   XZ=              0.0000   YZ=              0.0000

 1\1\GINC-HOLY2A09102\SP\RPBE1PBE\6-31G(d)\C12H12\EKWAN\19-Mar-2017\0\\
 #p pbe1pbe empiricaldispersion=gd3bj 6-31g*\\benzene dimer 2.50425\\0,
 1\C,0,1.3915,0.,2.50425\H,0,2.4715,0.,2.50425\C,0,0.69575,1.2050743494
 ,2.50425\H,0,1.23575,2.1403817855,2.50425\C,0,0.69575,-1.2050743494,2.
 50425\H,0,1.23575,-2.1403817855,2.50425\C,0,-0.69575,1.2050743494,2.50
 425\H,0,-1.23575,2.1403817855,2.50425\C,0,-0.69575,-1.2050743494,2.504
 25\H,0,-1.23575,-2.1403817855,2.50425\C,0,-1.3915,0.,2.50425\H,0,-2.47
 15,0.,2.50425\C,0,0.,0.,-1.10425\C,0,0.,-1.2050743494,-1.8\H,0,0.,-2.1

 Normal termination of Gaussian 09 at Sun Mar 19 01:34:39 2017.
