 Gaussian 09, Revision D.01,
 Gaussian 09:  EM64L-G09RevD.01 24-Apr-2013

 ---------------
 #p b3lyp 6-31g*
 ---------------

 ---------------------
 benzene dimer 4.40425
 ---------------------
 Symbolic Z-matrix:
 Charge =  0 Multiplicity = 1

                         Standard orientation:
 ---------------------------------------------------------------------
 Center     Atomic      Atomic             Coordinates (Angstroms)
 Number     Number       Type             X           Y           Z
 ---------------------------------------------------------------------
      1          6           0       -1.391500    0.000000   -3.450000
      2          1           0       -2.471500    0.000000   -3.450000
      3          6           0       -0.695750    1.205074   -3.450000
      4          1           0       -1.235750    2.140382   -3.450000
      5          6           0       -0.695750   -1.205074   -3.450000
      6          1           0       -1.235750   -2.140382   -3.450000
      7          6           0        0.695750    1.205074   -3.450000
      8          1           0        1.235750    2.140382   -3.450000
      9          6           0        0.695750   -1.205074   -3.450000
     10          1           0        1.235750   -2.140382   -3.450000
     11          6           0        1.391500    0.000000   -3.450000
     12          1           0        2.471500    0.000000   -3.450000
     13          6           0        0.000000    0.000000    2.058500
     14          6           0        0.000000   -1.205074    2.754250
     15          1           0        0.000000   -2.140382    2.214250
     16          1           0        0.000000    0.000000    0.978500
     17          6           0        0.000000   -1.205074    4.145750
     18          1           0        0.000000   -2.140382    4.685750
     19          6           0        0.000000    0.000000    4.841500
     20          1           0        0.000000    0.000000    5.921500
     21          6           0        0.000000    1.205074    4.145750
     22          1           0        0.000000    2.140382    4.685750
     23          6           0        0.000000    1.205074    2.754250
     24          1           0        0.000000    2.140382    2.214250
 ---------------------------------------------------------------------

 SCF Done:  E(RB3LYP) =  -464.496872474     A.U. after   12 cycles

 The electronic state is 1-A1.
 Alpha  occ. eigenvalues --  -10.18673 -10.18646 -10.18644 -10.18589 -10.18587
 Alpha  occ. eigenvalues --  -10.18560 -10.18318 -10.18286 -10.18261 -10.18222
 Alpha  occ. eigenvalues --  -10.18219 -10.18152  -0.85006  -0.84631  -0.74269
 Alpha  occ. eigenvalues --   -0.74264  -0.73906  -0.73882  -0.60006  -0.60004
 Alpha  occ. eigenvalues --   -0.59643  -0.59627  -0.52218  -0.51847  -0.46121
 Alpha  occ. eigenvalues --   -0.45753  -0.44051  -0.43679  -0.41961  -0.41954
 Alpha  occ. eigenvalues --   -0.41608  -0.41564  -0.36228  -0.35849  -0.34175
 Alpha  occ. eigenvalues --   -0.34170  -0.33819  -0.33783  -0.24814  -0.24808
 Alpha  occ. eigenvalues --   -0.24448  -0.24426
 Alpha virt. eigenvalues --    0.00350   0.00355   0.00714   0.00733   0.09178
 Alpha virt. eigenvalues --    0.09546   0.14545   0.14564   0.14852   0.14986
 Alpha virt. eigenvalues --    0.16534   0.16903   0.18310   0.18321   0.18628

 Mulliken charges:
               1
     1  C   -0.128116
     2  H    0.128773
     3  C   -0.128524
     4  H    0.128286
     5  C   -0.128524
     6  H    0.128286
     7  C   -0.128524
     8  H    0.128286
     9  C   -0.128524
    10  H    0.128286
    11  C   -0.128116
    12  H    0.128773
    13  C   -0.131928
    14  C   -0.128155
    15  H    0.127344
    16  H    0.137613
    17  C   -0.127796
    18  H    0.126375
    19  C   -0.128044
    20  H    0.126462
    21  C   -0.127796
    22  H    0.126375
    23  C   -0.128155
    24  H    0.127344
 Sum of Mulliken charges =   0.00000

 Dipole moment (field-independent basis, Debye):
    X=              0.0000    Y=              0.0000    Z=             -0.1142  Tot=              0.1142
 Quadrupole moment (field-independent basis, Debye-Ang):
   XX=            -69.8532   YY=            -62.8622   ZZ=            -70.2768
   XY=              0.0000   XZ=              0.0000   YZ=              0.0000

 Normal termination of Gaussian 09 at Sun Mar 19 00:53:30 2017.
