 Gaussian 09, Revision D.01,
 Gaussian 09:  EM64L-G09RevD.01 24-Apr-2013

 -------------------------------------------
 #p pbe1pbe empiricaldispersion=gd3bj 6-31g*
 -------------------------------------------

 ---------------------
 benzene dimer 1.90425
 ---------------------
 Symbolic Z-matrix:
 Charge =  0 Multiplicity = 1

                         Standard orientation:
 ---------------------------------------------------------------------
 Center     Atomic      Atomic             Coordinates (Angstroms)
 Number     Number       Type             X           Y           Z
 ---------------------------------------------------------------------
      1          6           0       -1.391500    0.000000   -2.200000
      2          1           0       -2.471500    0.000000   -2.200000
      3          6           0       -0.695750    1.205074   -2.200000
      4          1           0       -1.235750    2.140382   -2.200000
      5          6           0       -0.695750   -1.205074   -2.200000
      6          1           0       -1.235750   -2.140382   -2.200000
      7          6           0        0.695750    1.205074   -2.200000
      8          1           0        1.235750    2.140382   -2.200000
      9          6           0        0.695750   -1.205074   -2.200000
     10          1           0        1.235750   -2.140382   -2.200000
     11          6           0        1.391500    0.000000   -2.200000
     12          1           0        2.471500    0.000000   -2.200000
     13          6           0        0.000000    0.000000    0.808500
     14          6           0        0.000000   -1.205074    1.504250
     15          1           0        0.000000   -2.140382    0.964250
     16          1           0        0.000000    0.000000   -0.271500
     17          6           0        0.000000   -1.205074    2.895750
     18          1           0        0.000000   -2.140382    3.435750
     19          6           0        0.000000    0.000000    3.591500
     20          1           0        0.000000    0.000000    4.671500
     21          6           0        0.000000    1.205074    2.895750
     22          1           0        0.000000    2.140382    3.435750
     23          6           0        0.000000    1.205074    1.504250
     24          1           0        0.000000    2.140382    0.964250
 ---------------------------------------------------------------------

 SCF Done:  E(RPBE1PBE) =  -463.946768614     A.U. after   13 cycles

 The electronic state is 1-A1.
 Alpha  occ. eigenvalues --  -10.24295 -10.24271 -10.24258 -10.24209 -10.24195
 Alpha  occ. eigenvalues --  -10.24172 -10.22428 -10.22398 -10.22338 -10.22136
 Alpha  occ. eigenvalues --  -10.22133 -10.21382  -0.88595  -0.86263  -0.77321
 Alpha  occ. eigenvalues --   -0.77271  -0.75292  -0.75127  -0.62484  -0.62481
 Alpha  occ. eigenvalues --   -0.60544  -0.60517  -0.54547  -0.52579  -0.47985
 Alpha  occ. eigenvalues --   -0.46343  -0.46163  -0.44123  -0.43828  -0.43778
 Alpha  occ. eigenvalues --   -0.42731  -0.41938  -0.37590  -0.36417  -0.35751
 Alpha  occ. eigenvalues --   -0.35720  -0.33853  -0.32707  -0.27038  -0.26798
 Alpha  occ. eigenvalues --   -0.24679  -0.24164
 Alpha virt. eigenvalues --   -0.00119   0.00011   0.02201   0.02235   0.09479
 Alpha virt. eigenvalues --    0.11997   0.14701   0.15533   0.16768   0.17262
 Alpha virt. eigenvalues --    0.17697   0.18876   0.19197   0.19693   0.20341

 Mulliken charges:
               1
     1  C   -0.163966
     2  H    0.176215
     3  C   -0.171510
     4  H    0.174512
     5  C   -0.171510
     6  H    0.174512
     7  C   -0.171510
     8  H    0.174512
     9  C   -0.171510
    10  H    0.174512
    11  C   -0.163966
    12  H    0.176215
    13  C   -0.099475
    14  C   -0.181497
    15  H    0.153880
    16  H    0.147851
    17  C   -0.172216
    18  H    0.161276
    19  C   -0.169731
    20  H    0.161964
    21  C   -0.172216
    22  H    0.161276
    23  C   -0.181497
    24  H    0.153880
 Sum of Mulliken charges =   0.00000

 Dipole moment (field-independent basis, Debye):
    X=              0.0000    Y=              0.0000    Z=             -0.9142  Tot=              0.9142
 Quadrupole moment (field-independent basis, Debye-Ang):
   XX=            -69.1157   YY=            -62.1102   ZZ=            -70.5469
   XY=              0.0000   XZ=              0.0000   YZ=              0.0000

 Normal termination of Gaussian 09 at Sun Mar 19 01:33:07 2017.
