 Gaussian 09, Revision D.01,
 Gaussian 09:  EM64L-G09RevD.01 24-Apr-2013

 ----------------------------------------------
 #p b3lyp empiricaldispersion=gd3bj jun-cc-pVTZ
 ----------------------------------------------

 ---------------------
 benzene dimer 2.80425
 ---------------------
 Symbolic Z-matrix:
 Charge =  0 Multiplicity = 1

                         Standard orientation:
 ---------------------------------------------------------------------
 Center     Atomic      Atomic             Coordinates (Angstroms)
 Number     Number       Type             X           Y           Z
 ---------------------------------------------------------------------
      1          6           0       -1.391500    0.000000   -2.650000
      2          1           0       -2.471500    0.000000   -2.650000
      3          6           0       -0.695750    1.205074   -2.650000
      4          1           0       -1.235750    2.140382   -2.650000
      5          6           0       -0.695750   -1.205074   -2.650000
      6          1           0       -1.235750   -2.140382   -2.650000
      7          6           0        0.695750    1.205074   -2.650000
      8          1           0        1.235750    2.140382   -2.650000
      9          6           0        0.695750   -1.205074   -2.650000
     10          1           0        1.235750   -2.140382   -2.650000
     11          6           0        1.391500    0.000000   -2.650000
     12          1           0        2.471500    0.000000   -2.650000
     13          6           0        0.000000    0.000000    1.258500
     14          6           0        0.000000   -1.205074    1.954250
     15          1           0        0.000000   -2.140382    1.414250
     16          1           0        0.000000    0.000000    0.178500
     17          6           0        0.000000   -1.205074    3.345750
     18          1           0        0.000000   -2.140382    3.885750
     19          6           0        0.000000    0.000000    4.041500
     20          1           0        0.000000    0.000000    5.121500
     21          6           0        0.000000    1.205074    3.345750
     22          1           0        0.000000    2.140382    3.885750
     23          6           0        0.000000    1.205074    1.954250
     24          1           0        0.000000    2.140382    1.414250
 ---------------------------------------------------------------------

 SCF Done:  E(RB3LYP) =  -464.710999777     A.U. after   10 cycles

 The electronic state is 1-A1.
 Alpha  occ. eigenvalues --  -10.18408 -10.18385 -10.18377 -10.18325 -10.18316
 Alpha  occ. eigenvalues --  -10.18294 -10.17576 -10.17542 -10.17498 -10.17438
 Alpha  occ. eigenvalues --  -10.17430 -10.17233  -0.86341  -0.85420  -0.75458
 Alpha  occ. eigenvalues --   -0.75439  -0.74582  -0.74514  -0.61105  -0.61101
 Alpha  occ. eigenvalues --   -0.60239  -0.60199  -0.53296  -0.52420  -0.46887
 Alpha  occ. eigenvalues --   -0.46038  -0.45577  -0.44682  -0.43040  -0.43016
 Alpha  occ. eigenvalues --   -0.42203  -0.42169  -0.37776  -0.36878  -0.35286
 Alpha  occ. eigenvalues --   -0.35270  -0.34442  -0.34244  -0.26462  -0.26435
 Alpha  occ. eigenvalues --   -0.25535  -0.25399
 Alpha virt. eigenvalues --   -0.02193  -0.02102  -0.01179  -0.01147  -0.00757
 Alpha virt. eigenvalues --    0.00439   0.00662   0.01212   0.02196   0.02504
 Alpha virt. eigenvalues --    0.03311   0.03343   0.04441   0.04487   0.04661

 Mulliken charges:
               1
     1  C   -0.141074
     2  H    0.121054
     3  C   -0.119733
     4  H    0.119544
     5  C   -0.119733
     6  H    0.119544
     7  C   -0.119733
     8  H    0.119544
     9  C   -0.119733
    10  H    0.119544
    11  C   -0.141074
    12  H    0.121054
    13  C    0.073907
    14  C   -0.164629
    15  H    0.116228
    16  H    0.101416
    17  C   -0.131670
    18  H    0.117115
    19  C   -0.114619
    20  H    0.106006
    21  C   -0.131670
    22  H    0.117115
    23  C   -0.164629
    24  H    0.116228
 Sum of Mulliken charges =   0.00000

 Dipole moment (field-independent basis, Debye):
    X=              0.0000    Y=              0.0000    Z=             -0.3934  Tot=              0.3934
 Quadrupole moment (field-independent basis, Debye-Ang):
   XX=            -72.0614   YY=            -64.9539   ZZ=            -72.8884
   XY=              0.0000   XZ=              0.0000   YZ=              0.0000

 1\1\GINC-HOLY2A14108\SP\RB3LYP\Jun-CC-pVTZ\C12H12\ROOT\19-Mar-2017\0\\
 #p b3lyp empiricaldispersion=gd3bj jun-cc-pVTZ\\benzene dimer 2.80425\
 \0,1\C,0,1.3915,0.,2.80425\H,0,2.4715,0.,2.80425\C,0,0.69575,1.2050743
 494,2.80425\H,0,1.23575,2.1403817855,2.80425\C,0,0.69575,-1.2050743494
 ,2.80425\H,0,1.23575,-2.1403817855,2.80425\C,0,-0.69575,1.2050743494,2
 .80425\H,0,-1.23575,2.1403817855,2.80425\C,0,-0.69575,-1.2050743494,2.
 80425\H,0,-1.23575,-2.1403817855,2.80425\C,0,-1.3915,0.,2.80425\H,0,-2
 .4715,0.,2.80425\C,0,0.,0.,-1.10425\C,0,0.,-1.2050743494,-1.8\H,0,0.,-

 Normal termination of Gaussian 09 at Sun Mar 19 01:01:22 2017.
