 Gaussian 09, Revision D.01,
 Gaussian 09:  EM64L-G09RevD.01 24-Apr-2013

 ----------------------------------------------
 #p b3lyp empiricaldispersion=gd3bj may-cc-pVQZ
 ----------------------------------------------

 ---------------------
 benzene dimer 2.80425
 ---------------------
 Symbolic Z-matrix:
 Charge =  0 Multiplicity = 1

                         Standard orientation:
 ---------------------------------------------------------------------
 Center     Atomic      Atomic             Coordinates (Angstroms)
 Number     Number       Type             X           Y           Z
 ---------------------------------------------------------------------
      1          6           0       -1.391500    0.000000   -2.650000
      2          1           0       -2.471500    0.000000   -2.650000
      3          6           0       -0.695750    1.205074   -2.650000
      4          1           0       -1.235750    2.140382   -2.650000
      5          6           0       -0.695750   -1.205074   -2.650000
      6          1           0       -1.235750   -2.140382   -2.650000
      7          6           0        0.695750    1.205074   -2.650000
      8          1           0        1.235750    2.140382   -2.650000
      9          6           0        0.695750   -1.205074   -2.650000
     10          1           0        1.235750   -2.140382   -2.650000
     11          6           0        1.391500    0.000000   -2.650000
     12          1           0        2.471500    0.000000   -2.650000
     13          6           0        0.000000    0.000000    1.258500
     14          6           0        0.000000   -1.205074    1.954250
     15          1           0        0.000000   -2.140382    1.414250
     16          1           0        0.000000    0.000000    0.178500
     17          6           0        0.000000   -1.205074    3.345750
     18          1           0        0.000000   -2.140382    3.885750
     19          6           0        0.000000    0.000000    4.041500
     20          1           0        0.000000    0.000000    5.121500
     21          6           0        0.000000    1.205074    3.345750
     22          1           0        0.000000    2.140382    3.885750
     23          6           0        0.000000    1.205074    1.954250
     24          1           0        0.000000    2.140382    1.414250
 ---------------------------------------------------------------------

 SCF Done:  E(RB3LYP) =  -464.742911538     A.U. after   10 cycles

 The electronic state is 1-A1.
 Alpha  occ. eigenvalues --  -10.18115 -10.18090 -10.18082 -10.18029 -10.18020
 Alpha  occ. eigenvalues --  -10.17995 -10.17275 -10.17240 -10.17194 -10.17134
 Alpha  occ. eigenvalues --  -10.17128 -10.16928  -0.86302  -0.85377  -0.75426
 Alpha  occ. eigenvalues --   -0.75406  -0.74547  -0.74478  -0.61092  -0.61088
 Alpha  occ. eigenvalues --   -0.60222  -0.60183  -0.53311  -0.52431  -0.46894
 Alpha  occ. eigenvalues --   -0.46042  -0.45581  -0.44683  -0.43050  -0.43026
 Alpha  occ. eigenvalues --   -0.42210  -0.42175  -0.37788  -0.36888  -0.35300
 Alpha  occ. eigenvalues --   -0.35284  -0.34453  -0.34255  -0.26475  -0.26448
 Alpha  occ. eigenvalues --   -0.25545  -0.25409
 Alpha virt. eigenvalues --   -0.02210  -0.02121  -0.01194  -0.01163  -0.01034
 Alpha virt. eigenvalues --    0.00142   0.00383   0.00897   0.01845   0.02150
 Alpha virt. eigenvalues --    0.02878   0.02965   0.03771   0.03921   0.04214

 Mulliken charges:
               1
     1  C   -0.175891
     2  H    0.154775
     3  C   -0.143696
     4  H    0.153667
     5  C   -0.143696
     6  H    0.153667
     7  C   -0.143696
     8  H    0.153667
     9  C   -0.143696
    10  H    0.153667
    11  C   -0.175891
    12  H    0.154775
    13  C   -0.147862
    14  C   -0.135963
    15  H    0.175152
    16  H    0.100584
    17  C   -0.152319
    18  H    0.157676
    19  C   -0.193634
    20  H    0.154167
    21  C   -0.152319
    22  H    0.157676
    23  C   -0.135963
    24  H    0.175152
 Sum of Mulliken charges =   0.00000

 Dipole moment (field-independent basis, Debye):
    X=              0.0000    Y=              0.0000    Z=             -0.3941  Tot=              0.3941
 Quadrupole moment (field-independent basis, Debye-Ang):
   XX=            -72.0060   YY=            -64.9294   ZZ=            -72.8423
   XY=              0.0000   XZ=              0.0000   YZ=              0.0000

 1\1\GINC-HOLY2A14108\SP\RB3LYP\May-CC-pVQZ\C12H12\ROOT\19-Mar-2017\0\\
 #p b3lyp empiricaldispersion=gd3bj may-cc-pVQZ\\benzene dimer 2.80425\
 \0,1\C,0,1.3915,0.,2.80425\H,0,2.4715,0.,2.80425\C,0,0.69575,1.2050743
 494,2.80425\H,0,1.23575,2.1403817855,2.80425\C,0,0.69575,-1.2050743494
 ,2.80425\H,0,1.23575,-2.1403817855,2.80425\C,0,-0.69575,1.2050743494,2
 .80425\H,0,-1.23575,2.1403817855,2.80425\C,0,-0.69575,-1.2050743494,2.
 80425\H,0,-1.23575,-2.1403817855,2.80425\C,0,-1.3915,0.,2.80425\H,0,-2
 .4715,0.,2.80425\C,0,0.,0.,-1.10425\C,0,0.,-1.2050743494,-1.8\H,0,0.,-

 Normal termination of Gaussian 09 at Sun Mar 19 02:29:47 2017.
