 Gaussian 09, Revision D.01,
 Gaussian 09:  EM64L-G09RevD.01 24-Apr-2013

 ------------------------------------------
 #p b3lyp empiricaldispersion=gd3bj cc-pVTZ
 ------------------------------------------

 ---------------------
 benzene dimer 3.10425
 ---------------------
 Symbolic Z-matrix:
 Charge =  0 Multiplicity = 1

                         Standard orientation:
 ---------------------------------------------------------------------
 Center     Atomic      Atomic             Coordinates (Angstroms)
 Number     Number       Type             X           Y           Z
 ---------------------------------------------------------------------
      1          6           0       -1.391500    0.000000   -2.800000
      2          1           0       -2.471500    0.000000   -2.800000
      3          6           0       -0.695750    1.205074   -2.800000
      4          1           0       -1.235750    2.140382   -2.800000
      5          6           0       -0.695750   -1.205074   -2.800000
      6          1           0       -1.235750   -2.140382   -2.800000
      7          6           0        0.695750    1.205074   -2.800000
      8          1           0        1.235750    2.140382   -2.800000
      9          6           0        0.695750   -1.205074   -2.800000
     10          1           0        1.235750   -2.140382   -2.800000
     11          6           0        1.391500    0.000000   -2.800000
     12          1           0        2.471500    0.000000   -2.800000
     13          6           0        0.000000    0.000000    1.408500
     14          6           0        0.000000   -1.205074    2.104250
     15          1           0        0.000000   -2.140382    1.564250
     16          1           0        0.000000    0.000000    0.328500
     17          6           0        0.000000   -1.205074    3.495750
     18          1           0        0.000000   -2.140382    4.035750
     19          6           0        0.000000    0.000000    4.191500
     20          1           0        0.000000    0.000000    5.271500
     21          6           0        0.000000    1.205074    3.495750
     22          1           0        0.000000    2.140382    4.035750
     23          6           0        0.000000    1.205074    2.104250
     24          1           0        0.000000    2.140382    1.564250
 ---------------------------------------------------------------------

 SCF Done:  E(RB3LYP) =  -464.707851549     A.U. after   12 cycles

 The electronic state is 1-A1.
 Alpha  occ. eigenvalues --  -10.18152 -10.18130 -10.18121 -10.18070 -10.18061
 Alpha  occ. eigenvalues --  -10.18039 -10.17411 -10.17377 -10.17336 -10.17286
 Alpha  occ. eigenvalues --  -10.17279 -10.17121  -0.86070  -0.85268  -0.75213
 Alpha  occ. eigenvalues --   -0.75198  -0.74446  -0.74388  -0.60885  -0.60881
 Alpha  occ. eigenvalues --   -0.60124  -0.60087  -0.53082  -0.52308  -0.46705
 Alpha  occ. eigenvalues --   -0.45949  -0.45337  -0.44551  -0.42822  -0.42802
 Alpha  occ. eigenvalues --   -0.42087  -0.42013  -0.37541  -0.36738  -0.35075
 Alpha  occ. eigenvalues --   -0.35062  -0.34334  -0.34203  -0.26166  -0.26165
 Alpha  occ. eigenvalues --   -0.25382  -0.25295
 Alpha virt. eigenvalues --   -0.01561  -0.01548  -0.00760  -0.00742   0.03223
 Alpha virt. eigenvalues --    0.04844   0.06061   0.06964   0.07914   0.07946
 Alpha virt. eigenvalues --    0.10008   0.10026   0.10801   0.10837   0.12639

 Mulliken charges:
               1
     1  C   -0.104515
     2  H    0.107189
     3  C   -0.108783
     4  H    0.107640
     5  C   -0.108783
     6  H    0.107640
     7  C   -0.108783
     8  H    0.107640
     9  C   -0.108783
    10  H    0.107640
    11  C   -0.104515
    12  H    0.107189
    13  C   -0.091545
    14  C   -0.126910
    15  H    0.104578
    16  H    0.139327
    17  C   -0.101383
    18  H    0.103642
    19  C   -0.112237
    20  H    0.103822
    21  C   -0.101383
    22  H    0.103642
    23  C   -0.126910
    24  H    0.104578
 Sum of Mulliken charges =   0.00000

 Dipole moment (field-independent basis, Debye):
    X=              0.0000    Y=              0.0000    Z=             -0.3208  Tot=              0.3208
 Quadrupole moment (field-independent basis, Debye-Ang):
   XX=            -71.5114   YY=            -64.3604   ZZ=            -72.1789
   XY=              0.0000   XZ=              0.0000   YZ=              0.0000

 Normal termination of Gaussian 09 at Sun Mar 19 00:28:53 2017.
