 Gaussian 09, Revision D.01,
 Gaussian 09:  EM64L-G09RevD.01 24-Apr-2013

 ----------------------------------------------
 #p b3lyp empiricaldispersion=gd3bj may-cc-pVQZ
 ----------------------------------------------

 ---------------------
 benzene dimer 2.10425
 ---------------------
 Symbolic Z-matrix:
 Charge =  0 Multiplicity = 1

                         Standard orientation:
 ---------------------------------------------------------------------
 Center     Atomic      Atomic             Coordinates (Angstroms)
 Number     Number       Type             X           Y           Z
 ---------------------------------------------------------------------
      1          6           0       -1.391500    0.000000   -2.300000
      2          1           0       -2.471500    0.000000   -2.300000
      3          6           0       -0.695750    1.205074   -2.300000
      4          1           0       -1.235750    2.140382   -2.300000
      5          6           0       -0.695750   -1.205074   -2.300000
      6          1           0       -1.235750   -2.140382   -2.300000
      7          6           0        0.695750    1.205074   -2.300000
      8          1           0        1.235750    2.140382   -2.300000
      9          6           0        0.695750   -1.205074   -2.300000
     10          1           0        1.235750   -2.140382   -2.300000
     11          6           0        1.391500    0.000000   -2.300000
     12          1           0        2.471500    0.000000   -2.300000
     13          6           0        0.000000    0.000000    0.908500
     14          6           0        0.000000   -1.205074    1.604250
     15          1           0        0.000000   -2.140382    1.064250
     16          1           0        0.000000    0.000000   -0.171500
     17          6           0        0.000000   -1.205074    2.995750
     18          1           0        0.000000   -2.140382    3.535750
     19          6           0        0.000000    0.000000    3.691500
     20          1           0        0.000000    0.000000    4.771500
     21          6           0        0.000000    1.205074    2.995750
     22          1           0        0.000000    2.140382    3.535750
     23          6           0        0.000000    1.205074    1.604250
     24          1           0        0.000000    2.140382    1.064250
 ---------------------------------------------------------------------

 SCF Done:  E(RB3LYP) =  -464.741558202     A.U. after   10 cycles

 The electronic state is 1-A1.
 Alpha  occ. eigenvalues --  -10.18303 -10.18278 -10.18269 -10.18217 -10.18207
 Alpha  occ. eigenvalues --  -10.18182 -10.16973 -10.16945 -10.16883 -10.16757
 Alpha  occ. eigenvalues --  -10.16753 -10.16278  -0.86632  -0.85018  -0.75672
 Alpha  occ. eigenvalues --   -0.75636  -0.74226  -0.74112  -0.61293  -0.61289
 Alpha  occ. eigenvalues --   -0.59898  -0.59866  -0.53561  -0.52163  -0.47067
 Alpha  occ. eigenvalues --   -0.45841  -0.45787  -0.44335  -0.43274  -0.43233
 Alpha  occ. eigenvalues --   -0.42346  -0.41915  -0.37624  -0.36576  -0.35497
 Alpha  occ. eigenvalues --   -0.35472  -0.34135  -0.33397  -0.26963  -0.26755
 Alpha  occ. eigenvalues --   -0.25251  -0.24841
 Alpha virt. eigenvalues --   -0.02591  -0.02361  -0.01070  -0.00807  -0.00711
 Alpha virt. eigenvalues --    0.00285   0.00359   0.00880   0.02023   0.02281
 Alpha virt. eigenvalues --    0.02771   0.02934   0.03877   0.04099   0.04557

 Mulliken charges:
               1
     1  C   -0.170601
     2  H    0.143318
     3  C   -0.123056
     4  H    0.141732
     5  C   -0.123056
     6  H    0.141732
     7  C   -0.123056
     8  H    0.141732
     9  C   -0.123056
    10  H    0.141732
    11  C   -0.170601
    12  H    0.143318
    13  C   -0.475008
    14  C   -0.108171
    15  H    0.178314
    16  H    0.205609
    17  C   -0.114723
    18  H    0.157269
    19  C   -0.127076
    20  H    0.150961
    21  C   -0.114723
    22  H    0.157269
    23  C   -0.108171
    24  H    0.178314
 Sum of Mulliken charges =   0.00000

 Dipole moment (field-independent basis, Debye):
    X=              0.0000    Y=              0.0000    Z=             -0.6644  Tot=              0.6644
 Quadrupole moment (field-independent basis, Debye-Ang):
   XX=            -71.7377   YY=            -65.0119   ZZ=            -73.2994
   XY=              0.0000   XZ=              0.0000   YZ=              0.0000

 Normal termination of Gaussian 09 at Sun Mar 19 02:02:17 2017.
