 Gaussian 09, Revision D.01,
 Gaussian 09:  EM64L-G09RevD.01 24-Apr-2013

 -------------
 #p mp2 6-31g*
 -------------

 ---------------------
 benzene dimer 2.50425
 ---------------------
 Symbolic Z-matrix:
 Charge =  0 Multiplicity = 1

                         Standard orientation:
 ---------------------------------------------------------------------
 Center     Atomic      Atomic             Coordinates (Angstroms)
 Number     Number       Type             X           Y           Z
 ---------------------------------------------------------------------
      1          6           0       -1.391500    0.000000   -2.500000
      2          1           0       -2.471500    0.000000   -2.500000
      3          6           0       -0.695750    1.205074   -2.500000
      4          1           0       -1.235750    2.140382   -2.500000
      5          6           0       -0.695750   -1.205074   -2.500000
      6          1           0       -1.235750   -2.140382   -2.500000
      7          6           0        0.695750    1.205074   -2.500000
      8          1           0        1.235750    2.140382   -2.500000
      9          6           0        0.695750   -1.205074   -2.500000
     10          1           0        1.235750   -2.140382   -2.500000
     11          6           0        1.391500    0.000000   -2.500000
     12          1           0        2.471500    0.000000   -2.500000
     13          6           0        0.000000    0.000000    1.108500
     14          6           0        0.000000   -1.205074    1.804250
     15          1           0        0.000000   -2.140382    1.264250
     16          1           0        0.000000    0.000000    0.028500
     17          6           0        0.000000   -1.205074    3.195750
     18          1           0        0.000000   -2.140382    3.735750
     19          6           0        0.000000    0.000000    3.891500
     20          1           0        0.000000    0.000000    4.971500
     21          6           0        0.000000    1.205074    3.195750
     22          1           0        0.000000    2.140382    3.735750
     23          6           0        0.000000    1.205074    1.804250
     24          1           0        0.000000    2.140382    1.264250
 ---------------------------------------------------------------------

 SCF Done:  E(RHF) =  -461.405571091     A.U. after   12 cycles
 E2 =    -0.1514206522D+01 EUMP2 =    -0.46291977761322D+03

 The electronic state is 1-A1.
 Alpha  occ. eigenvalues --  -11.23689 -11.23640 -11.23623 -11.23518 -11.23500
 Alpha  occ. eigenvalues --  -11.23450 -11.22428 -11.22370 -11.22260 -11.22153
 Alpha  occ. eigenvalues --  -11.22139 -11.21773  -1.15089  -1.13649  -1.01490
 Alpha  occ. eigenvalues --   -1.01457  -1.00153  -1.00042  -0.82352  -0.82348
 Alpha  occ. eigenvalues --   -0.81037  -0.80992  -0.70974  -0.69649  -0.64402
 Alpha  occ. eigenvalues --   -0.63149  -0.61725  -0.60358  -0.58809  -0.58773
 Alpha  occ. eigenvalues --   -0.57556  -0.57537  -0.50369  -0.49406  -0.49383
 Alpha  occ. eigenvalues --   -0.48793  -0.48126  -0.47450  -0.33667  -0.33610
 Alpha  occ. eigenvalues --   -0.32261  -0.31960
 Alpha virt. eigenvalues --    0.14193   0.14234   0.15630   0.15690   0.22995
 Alpha virt. eigenvalues --    0.24551   0.28604   0.29065   0.30185   0.30696
 Alpha virt. eigenvalues --    0.32864   0.32947   0.33376   0.33795   0.33990

 Mulliken charges:
               1
     1  C   -0.199481
     2  H    0.204869
     3  C   -0.204169
     4  H    0.203448
     5  C   -0.204169
     6  H    0.203448
     7  C   -0.204169
     8  H    0.203448
     9  C   -0.204169
    10  H    0.203448
    11  C   -0.199481
    12  H    0.204869
    13  C   -0.207723
    14  C   -0.208691
    15  H    0.194587
    16  H    0.243274
    17  C   -0.199131
    18  H    0.195172
    19  C   -0.202819
    20  H    0.195499
    21  C   -0.199131
    22  H    0.195172
    23  C   -0.208691
    24  H    0.194587
 Sum of Mulliken charges =   0.00000

 Dipole moment (field-independent basis, Debye):
    X=              0.0000    Y=              0.0000    Z=             -0.5626  Tot=              0.5626
 Quadrupole moment (field-independent basis, Debye-Ang):
   XX=            -70.9332   YY=            -62.9564   ZZ=            -71.9629
   XY=              0.0000   XZ=              0.0000   YZ=              0.0000

 Normal termination of Gaussian 09 at Sun Mar 19 00:44:39 2017.
