 Gaussian 09, Revision D.01,
 Gaussian 09:  EM64L-G09RevD.01 24-Apr-2013

 ----------------------------------------------
 #p b3lyp empiricaldispersion=gd3bj may-cc-pVQZ
 ----------------------------------------------

 ----------------------------
 benzene dimer 2.495750000000
 ----------------------------
 Symbolic Z-matrix:
 Charge =  0 Multiplicity = 1

                         Standard orientation:
 ---------------------------------------------------------------------
 Center     Atomic      Atomic             Coordinates (Angstroms)
 Number     Number       Type             X           Y           Z
 ---------------------------------------------------------------------
      1          6           0       -1.391500    0.000000   -2.495750
      2          1           0       -2.471500    0.000000   -2.495750
      3          6           0       -0.695750    1.205074   -2.495750
      4          1           0       -1.235750    2.140382   -2.495750
      5          6           0       -0.695750   -1.205074   -2.495750
      6          1           0       -1.235750   -2.140382   -2.495750
      7          6           0        0.695750    1.205074   -2.495750
      8          1           0        1.235750    2.140382   -2.495750
      9          6           0        0.695750   -1.205074   -2.495750
     10          1           0        1.235750   -2.140382   -2.495750
     11          6           0        1.391500    0.000000   -2.495750
     12          1           0        2.471500    0.000000   -2.495750
     13          6           0        0.000000    0.000000    1.104250
     14          6           0        0.000000   -1.205074    1.800000
     15          1           0        0.000000   -2.140382    1.260000
     16          1           0        0.000000    0.000000    0.024250
     17          6           0        0.000000   -1.205074    3.191500
     18          1           0        0.000000   -2.140382    3.731500
     19          6           0        0.000000    0.000000    3.887250
     20          1           0        0.000000    0.000000    4.967250
     21          6           0        0.000000    1.205074    3.191500
     22          1           0        0.000000    2.140382    3.731500
     23          6           0        0.000000    1.205074    1.800000
     24          1           0        0.000000    2.140382    1.260000
 ---------------------------------------------------------------------

 SCF Done:  E(RB3LYP) =  -464.743496390     A.U. after   10 cycles

 The electronic state is 1-A1.
 Alpha  occ. eigenvalues --  -10.18187 -10.18163 -10.18153 -10.18102 -10.18091
 Alpha  occ. eigenvalues --  -10.18067 -10.17165 -10.17132 -10.17082 -10.17000
 Alpha  occ. eigenvalues --  -10.16995 -10.16713  -0.86406  -0.85250  -0.75512
 Alpha  occ. eigenvalues --   -0.75487  -0.74431  -0.74344  -0.61165  -0.61160
 Alpha  occ. eigenvalues --   -0.60103  -0.60060  -0.53391  -0.52324  -0.46957
 Alpha  occ. eigenvalues --   -0.45948  -0.45656  -0.44556  -0.43128  -0.43098
 Alpha  occ. eigenvalues --   -0.42173  -0.42101  -0.37797  -0.36772  -0.35372
 Alpha  occ. eigenvalues --   -0.35352  -0.34337  -0.33994  -0.26632  -0.26557
 Alpha  occ. eigenvalues --   -0.25437  -0.25220
 Alpha virt. eigenvalues --   -0.02343  -0.02207  -0.01056  -0.01044  -0.01004
 Alpha virt. eigenvalues --    0.00196   0.00371   0.00894   0.01915   0.02213
 Alpha virt. eigenvalues --    0.02833   0.02953   0.03812   0.03982   0.04361

 Mulliken charges:
               1
     1  C   -0.182509
     2  H    0.156855
     3  C   -0.136799
     4  H    0.150695
     5  C   -0.136799
     6  H    0.150695
     7  C   -0.136799
     8  H    0.150695
     9  C   -0.136799
    10  H    0.150695
    11  C   -0.182509
    12  H    0.156855
    13  C   -0.220611
    14  C   -0.117642
    15  H    0.177864
    16  H    0.113657
    17  C   -0.146855
    18  H    0.158260
    19  C   -0.192870
    20  H    0.152291
    21  C   -0.146855
    22  H    0.158260
    23  C   -0.117642
    24  H    0.177864
 Sum of Mulliken charges =   0.00000

 Dipole moment (field-independent basis, Debye):
    X=              0.0000    Y=              0.0000    Z=             -0.4955  Tot=              0.4955
 Quadrupole moment (field-independent basis, Debye-Ang):
   XX=            -71.9155   YY=            -64.9583   ZZ=            -72.9776
   XY=              0.0000   XZ=              0.0000   YZ=              0.0000

 1\1\GINC-HOLY2A14108\SP\RB3LYP\May-CC-pVQZ\C12H12\ROOT\19-Mar-2017\0\\
 #p b3lyp empiricaldispersion=gd3bj may-cc-pVQZ\\benzene dimer 2.495750
 000000\\0,1\C,0,1.3915,0.,2.49575\H,0,2.4715,0.,2.49575\C,0,0.69575,1.
 2050743494,2.49575\H,0,1.23575,2.1403817855,2.49575\C,0,0.69575,-1.205
 0743494,2.49575\H,0,1.23575,-2.1403817855,2.49575\C,0,-0.69575,1.20507
 43494,2.49575\H,0,-1.23575,2.1403817855,2.49575\C,0,-0.69575,-1.205074
 3494,2.49575\H,0,-1.23575,-2.1403817855,2.49575\C,0,-1.3915,0.,2.49575
 \H,0,-2.4715,0.,2.49575\C,0,0.,0.,-1.10425\C,0,0.,-1.2050743494,-1.8\H

 Normal termination of Gaussian 09 at Sun Mar 19 03:35:28 2017.
