 Gaussian 09, Revision D.01,
 Gaussian 09:  EM64L-G09RevD.01 24-Apr-2013

 ------------------------------------------
 #p b3lyp empiricaldispersion=gd3bj cc-pVQZ
 ------------------------------------------

 ---------------------
 benzene dimer 4.90425
 ---------------------
 Symbolic Z-matrix:
 Charge =  0 Multiplicity = 1

                         Standard orientation:
 ---------------------------------------------------------------------
 Center     Atomic      Atomic             Coordinates (Angstroms)
 Number     Number       Type             X           Y           Z
 ---------------------------------------------------------------------
      1          6           0       -1.391500    0.000000   -3.700000
      2          1           0       -2.471500    0.000000   -3.700000
      3          6           0       -0.695750    1.205074   -3.700000
      4          1           0       -1.235750    2.140382   -3.700000
      5          6           0       -0.695750   -1.205074   -3.700000
      6          1           0       -1.235750   -2.140382   -3.700000
      7          6           0        0.695750    1.205074   -3.700000
      8          1           0        1.235750    2.140382   -3.700000
      9          6           0        0.695750   -1.205074   -3.700000
     10          1           0        1.235750   -2.140382   -3.700000
     11          6           0        1.391500    0.000000   -3.700000
     12          1           0        2.471500    0.000000   -3.700000
     13          6           0        0.000000    0.000000    2.308500
     14          6           0        0.000000   -1.205074    3.004250
     15          1           0        0.000000   -2.140382    2.464250
     16          1           0        0.000000    0.000000    1.228500
     17          6           0        0.000000   -1.205074    4.395750
     18          1           0        0.000000   -2.140382    4.935750
     19          6           0        0.000000    0.000000    5.091500
     20          1           0        0.000000    0.000000    6.171500
     21          6           0        0.000000    1.205074    4.395750
     22          1           0        0.000000    2.140382    4.935750
     23          6           0        0.000000    1.205074    3.004250
     24          1           0        0.000000    2.140382    2.464250
 ---------------------------------------------------------------------

 SCF Done:  E(RB3LYP) =  -464.738541486     A.U. after   15 cycles

 The electronic state is 1-A1.
 Alpha  occ. eigenvalues --  -10.17790 -10.17763 -10.17761 -10.17703 -10.17700
 Alpha  occ. eigenvalues --  -10.17672 -10.17487 -10.17456 -10.17436 -10.17390
 Alpha  occ. eigenvalues --  -10.17390 -10.17335  -0.85949  -0.85633  -0.75096
 Alpha  occ. eigenvalues --   -0.75092  -0.74787  -0.74770  -0.60793  -0.60792
 Alpha  occ. eigenvalues --   -0.60483  -0.60472  -0.53019  -0.52705  -0.46634
 Alpha  occ. eigenvalues --   -0.46322  -0.45265  -0.44950  -0.42748  -0.42743
 Alpha  occ. eigenvalues --   -0.42447  -0.42415  -0.37452  -0.37133  -0.35009
 Alpha  occ. eigenvalues --   -0.35005  -0.34705  -0.34680  -0.26074  -0.26069
 Alpha  occ. eigenvalues --   -0.25764  -0.25746
 Alpha virt. eigenvalues --   -0.01600  -0.01598  -0.01292  -0.01278   0.02329
 Alpha virt. eigenvalues --    0.03102   0.05142   0.05328   0.05535   0.05655
 Alpha virt. eigenvalues --    0.07983   0.08055   0.08118   0.08313   0.10875

 Mulliken charges:
               1
     1  C   -0.116631
     2  H    0.116509
     3  C   -0.116538
     4  H    0.116657
     5  C   -0.116538
     6  H    0.116657
     7  C   -0.116538
     8  H    0.116657
     9  C   -0.116538
    10  H    0.116657
    11  C   -0.116631
    12  H    0.116509
    13  C   -0.125411
    14  C   -0.121265
    15  H    0.116689
    16  H    0.136919
    17  C   -0.115588
    18  H    0.114886
    19  C   -0.116180
    20  H    0.114993
    21  C   -0.115588
    22  H    0.114886
    23  C   -0.121265
    24  H    0.116689
 Sum of Mulliken charges =   0.00000

 Dipole moment (field-independent basis, Debye):
    X=              0.0000    Y=              0.0000    Z=             -0.1096  Tot=              0.1096
 Quadrupole moment (field-independent basis, Debye-Ang):
   XX=            -71.8827   YY=            -64.4989   ZZ=            -72.2243
   XY=              0.0000   XZ=              0.0000   YZ=              0.0000

 Normal termination of Gaussian 09 at Sun Mar 19 02:02:00 2017.
