 Gaussian 09, Revision D.01,
 Gaussian 09:  EM64L-G09RevD.01 24-Apr-2013

 ----------------------------------------------
 #p b3lyp empiricaldispersion=gd3bj jun-cc-pVTZ
 ----------------------------------------------

 ---------------
 benzene monomer
 ---------------
 Symbolic Z-matrix:
 Charge =  0 Multiplicity = 1

                         Standard orientation:
 ---------------------------------------------------------------------
 Center     Atomic      Atomic             Coordinates (Angstroms)
 Number     Number       Type             X           Y           Z
 ---------------------------------------------------------------------
      1          6           0        0.000000    1.391500    0.000000
      2          1           0        0.000000    2.471500    0.000000
      3          6           0        1.205074    0.695750    0.000000
      4          1           0        2.140382    1.235750    0.000000
      5          6           0       -1.205074    0.695750    0.000000
      6          1           0       -2.140382    1.235750    0.000000
      7          6           0        1.205074   -0.695750    0.000000
      8          1           0        2.140382   -1.235750    0.000000
      9          6           0       -1.205074   -0.695750    0.000000
     10          1           0       -2.140382   -1.235750    0.000000
     11          6           0        0.000000   -1.391500    0.000000
     12          1           0        0.000000   -2.471500    0.000000
 ---------------------------------------------------------------------

 SCF Done:  E(RB3LYP) =  -232.353527627     A.U. after    8 cycles

 The electronic state is 1-A1G.
 Alpha  occ. eigenvalues --  -10.18088 -10.18061 -10.18061 -10.18001 -10.18001
 Alpha  occ. eigenvalues --  -10.17975  -0.85982  -0.75114  -0.75114  -0.60788
 Alpha  occ. eigenvalues --   -0.60788  -0.52984  -0.46599  -0.45251  -0.42717
 Alpha  occ. eigenvalues --   -0.42717  -0.37418  -0.34974  -0.34974  -0.26045
 Alpha  occ. eigenvalues --   -0.26045
 Alpha virt. eigenvalues --   -0.01760  -0.01760  -0.00051   0.01336   0.01336
 Alpha virt. eigenvalues --    0.03485   0.03485   0.04495   0.06160   0.06455
 Alpha virt. eigenvalues --    0.06840   0.06840   0.08410   0.10491   0.10491

 Mulliken charges:
               1
     1  C   -0.117463
     2  H    0.117463
     3  C   -0.117463
     4  H    0.117463
     5  C   -0.117463
     6  H    0.117463
     7  C   -0.117463
     8  H    0.117463
     9  C   -0.117463
    10  H    0.117463
    11  C   -0.117463
    12  H    0.117463
 Sum of Mulliken charges =   0.00000

 Dipole moment (field-independent basis, Debye):
    X=              0.0000    Y=              0.0000    Z=              0.0000  Tot=              0.0000
 Quadrupole moment (field-independent basis, Debye-Ang):
   XX=            -32.4116   YY=            -32.4116   ZZ=            -39.8838
   XY=              0.0000   XZ=              0.0000   YZ=              0.0000

 Normal termination of Gaussian 09 at Sun Mar 19 01:11:40 2017.
