 Gaussian 09, Revision D.01,
 Gaussian 09:  EM64L-G09RevD.01 24-Apr-2013

 -----------------------------------------
 #p b3lyp empiricaldispersion=gd3bj 6-31g*
 -----------------------------------------

 ---------------------
 benzene dimer 2.20425
 ---------------------
 Symbolic Z-matrix:
 Charge =  0 Multiplicity = 1

                         Standard orientation:
 ---------------------------------------------------------------------
 Center     Atomic      Atomic             Coordinates (Angstroms)
 Number     Number       Type             X           Y           Z
 ---------------------------------------------------------------------
      1          6           0       -1.391500    0.000000   -2.350000
      2          1           0       -2.471500    0.000000   -2.350000
      3          6           0       -0.695750    1.205074   -2.350000
      4          1           0       -1.235750    2.140382   -2.350000
      5          6           0       -0.695750   -1.205074   -2.350000
      6          1           0       -1.235750   -2.140382   -2.350000
      7          6           0        0.695750    1.205074   -2.350000
      8          1           0        1.235750    2.140382   -2.350000
      9          6           0        0.695750   -1.205074   -2.350000
     10          1           0        1.235750   -2.140382   -2.350000
     11          6           0        1.391500    0.000000   -2.350000
     12          1           0        2.471500    0.000000   -2.350000
     13          6           0        0.000000    0.000000    0.958500
     14          6           0        0.000000   -1.205074    1.654250
     15          1           0        0.000000   -2.140382    1.114250
     16          1           0        0.000000    0.000000   -0.121500
     17          6           0        0.000000   -1.205074    3.045750
     18          1           0        0.000000   -2.140382    3.585750
     19          6           0        0.000000    0.000000    3.741500
     20          1           0        0.000000    0.000000    4.821500
     21          6           0        0.000000    1.205074    3.045750
     22          1           0        0.000000    2.140382    3.585750
     23          6           0        0.000000    1.205074    1.654250
     24          1           0        0.000000    2.140382    1.114250
 ---------------------------------------------------------------------

 SCF Done:  E(RB3LYP) =  -464.539871775     A.U. after   13 cycles

 The electronic state is 1-A1.
 Alpha  occ. eigenvalues --  -10.19154 -10.19132 -10.19118 -10.19075 -10.19058
 Alpha  occ. eigenvalues --  -10.19038 -10.17701 -10.17667 -10.17622 -10.17477
 Alpha  occ. eigenvalues --  -10.17474 -10.16958  -0.85624  -0.83919  -0.74804
 Alpha  occ. eigenvalues --   -0.74769  -0.73250  -0.73119  -0.60475  -0.60471
 Alpha  occ. eigenvalues --   -0.58965  -0.58905  -0.52711  -0.51191  -0.46526
 Alpha  occ. eigenvalues --   -0.45137  -0.44550  -0.42960  -0.42450  -0.42411
 Alpha  occ. eigenvalues --   -0.41236  -0.40987  -0.36529  -0.35188  -0.34635
 Alpha  occ. eigenvalues --   -0.34613  -0.33159  -0.32486  -0.25546  -0.25451
 Alpha  occ. eigenvalues --   -0.23830  -0.23529
 Alpha virt. eigenvalues --   -0.00267  -0.00219   0.01411   0.01467   0.08672
 Alpha virt. eigenvalues --    0.10541   0.13728   0.14285   0.15621   0.16012
 Alpha virt. eigenvalues --    0.16213   0.17594   0.17991   0.18165   0.18977

 Mulliken charges:
               1
     1  C   -0.125704
     2  H    0.133681
     3  C   -0.130667
     4  H    0.132382
     5  C   -0.130667
     6  H    0.132382
     7  C   -0.130667
     8  H    0.132382
     9  C   -0.130667
    10  H    0.132382
    11  C   -0.125704
    12  H    0.133681
    13  C   -0.113163
    14  C   -0.139947
    15  H    0.118610
    16  H    0.154339
    17  C   -0.129661
    18  H    0.122048
    19  C   -0.128540
    20  H    0.122450
    21  C   -0.129661
    22  H    0.122048
    23  C   -0.139947
    24  H    0.118610
 Sum of Mulliken charges =   0.00000

 Dipole moment (field-independent basis, Debye):
    X=              0.0000    Y=              0.0000    Z=             -0.7447  Tot=              0.7447
 Quadrupole moment (field-independent basis, Debye-Ang):
   XX=            -69.5001   YY=            -63.0632   ZZ=            -70.4989
   XY=              0.0000   XZ=              0.0000   YZ=              0.0000

 Normal termination of Gaussian 09 at Sun Mar 19 00:43:09 2017.
