 Gaussian 09, Revision D.01,
 Gaussian 09:  EM64L-G09RevD.01 24-Apr-2013

 ----------------------------------------------
 #p b3lyp empiricaldispersion=gd3bj jul-cc-pVDZ
 ----------------------------------------------

 ---------------------
 benzene dimer 2.80425
 ---------------------
 Symbolic Z-matrix:
 Charge =  0 Multiplicity = 1

                         Standard orientation:
 ---------------------------------------------------------------------
 Center     Atomic      Atomic             Coordinates (Angstroms)
 Number     Number       Type             X           Y           Z
 ---------------------------------------------------------------------
      1          6           0       -1.391500    0.000000   -2.650000
      2          1           0       -2.471500    0.000000   -2.650000
      3          6           0       -0.695750    1.205074   -2.650000
      4          1           0       -1.235750    2.140382   -2.650000
      5          6           0       -0.695750   -1.205074   -2.650000
      6          1           0       -1.235750   -2.140382   -2.650000
      7          6           0        0.695750    1.205074   -2.650000
      8          1           0        1.235750    2.140382   -2.650000
      9          6           0        0.695750   -1.205074   -2.650000
     10          1           0        1.235750   -2.140382   -2.650000
     11          6           0        1.391500    0.000000   -2.650000
     12          1           0        2.471500    0.000000   -2.650000
     13          6           0        0.000000    0.000000    1.258500
     14          6           0        0.000000   -1.205074    1.954250
     15          1           0        0.000000   -2.140382    1.414250
     16          1           0        0.000000    0.000000    0.178500
     17          6           0        0.000000   -1.205074    3.345750
     18          1           0        0.000000   -2.140382    3.885750
     19          6           0        0.000000    0.000000    4.041500
     20          1           0        0.000000    0.000000    5.121500
     21          6           0        0.000000    1.205074    3.345750
     22          1           0        0.000000    2.140382    3.885750
     23          6           0        0.000000    1.205074    1.954250
     24          1           0        0.000000    2.140382    1.414250
 ---------------------------------------------------------------------

 SCF Done:  E(RB3LYP) =  -464.584425952     A.U. after   11 cycles

 The electronic state is 1-A1.
 Alpha  occ. eigenvalues --  -10.19618 -10.19603 -10.19593 -10.19548 -10.19537
 Alpha  occ. eigenvalues --  -10.19516 -10.18784 -10.18756 -10.18714 -10.18650
 Alpha  occ. eigenvalues --  -10.18646 -10.18438  -0.86550  -0.85640  -0.75647
 Alpha  occ. eigenvalues --   -0.75629  -0.74783  -0.74717  -0.61202  -0.61198
 Alpha  occ. eigenvalues --   -0.60346  -0.60308  -0.53264  -0.52400  -0.46898
 Alpha  occ. eigenvalues --   -0.46058  -0.45554  -0.44672  -0.43005  -0.42983
 Alpha  occ. eigenvalues --   -0.42182  -0.42147  -0.37722  -0.36836  -0.35192
 Alpha  occ. eigenvalues --   -0.35177  -0.34359  -0.34162  -0.26416  -0.26386
 Alpha  occ. eigenvalues --   -0.25499  -0.25363
 Alpha virt. eigenvalues --   -0.02118  -0.02026  -0.01114  -0.01079  -0.00298
 Alpha virt. eigenvalues --    0.00947   0.01060   0.01679   0.02717   0.02986
 Alpha virt. eigenvalues --    0.03871   0.03884   0.05221   0.05293   0.05573

 Mulliken charges:
               1
     1  C    0.227370
     2  H   -0.210087
     3  C    0.204071
     4  H   -0.208737
     5  C    0.204071
     6  H   -0.208737
     7  C    0.204071
     8  H   -0.208737
     9  C    0.204071
    10  H   -0.208737
    11  C    0.227370
    12  H   -0.210087
    13  C    0.426822
    14  C    0.229175
    15  H   -0.193317
    16  H   -0.295999
    17  C    0.106701
    18  H   -0.199282
    19  C    0.168534
    20  H   -0.201813
    21  C    0.106701
    22  H   -0.199282
    23  C    0.229175
    24  H   -0.193317
 Sum of Mulliken charges =   0.00000

 Dipole moment (field-independent basis, Debye):
    X=              0.0000    Y=              0.0000    Z=             -0.3927  Tot=              0.3927
 Quadrupole moment (field-independent basis, Debye-Ang):
   XX=            -72.1709   YY=            -65.2449   ZZ=            -72.9646
   XY=              0.0000   XZ=              0.0000   YZ=              0.0000

 Normal termination of Gaussian 09 at Sun Mar 19 00:51:14 2017.
