 Gaussian 09, Revision D.01,
 Gaussian 09:  EM64L-G09RevD.01 24-Apr-2013

 ------------------------------------------
 #p b3lyp empiricaldispersion=gd3bj cc-pVDZ
 ------------------------------------------

 ---------------------
 benzene dimer 4.40425
 ---------------------
 Symbolic Z-matrix:
 Charge =  0 Multiplicity = 1

                         Standard orientation:
 ---------------------------------------------------------------------
 Center     Atomic      Atomic             Coordinates (Angstroms)
 Number     Number       Type             X           Y           Z
 ---------------------------------------------------------------------
      1          6           0       -1.391500    0.000000   -3.450000
      2          1           0       -2.471500    0.000000   -3.450000
      3          6           0       -0.695750    1.205074   -3.450000
      4          1           0       -1.235750    2.140382   -3.450000
      5          6           0       -0.695750   -1.205074   -3.450000
      6          1           0       -1.235750   -2.140382   -3.450000
      7          6           0        0.695750    1.205074   -3.450000
      8          1           0        1.235750    2.140382   -3.450000
      9          6           0        0.695750   -1.205074   -3.450000
     10          1           0        1.235750   -2.140382   -3.450000
     11          6           0        1.391500    0.000000   -3.450000
     12          1           0        2.471500    0.000000   -3.450000
     13          6           0        0.000000    0.000000    2.058500
     14          6           0        0.000000   -1.205074    2.754250
     15          1           0        0.000000   -2.140382    2.214250
     16          1           0        0.000000    0.000000    0.978500
     17          6           0        0.000000   -1.205074    4.145750
     18          1           0        0.000000   -2.140382    4.685750
     19          6           0        0.000000    0.000000    4.841500
     20          1           0        0.000000    0.000000    5.921500
     21          6           0        0.000000    1.205074    4.145750
     22          1           0        0.000000    2.140382    4.685750
     23          6           0        0.000000    1.205074    2.754250
     24          1           0        0.000000    2.140382    2.214250
 ---------------------------------------------------------------------

 SCF Done:  E(RB3LYP) =  -464.562857606     A.U. after   12 cycles

 The electronic state is 1-A1.
 Alpha  occ. eigenvalues --  -10.18967 -10.18946 -10.18943 -10.18895 -10.18892
 Alpha  occ. eigenvalues --  -10.18871 -10.18609 -10.18582 -10.18556 -10.18524
 Alpha  occ. eigenvalues --  -10.18520 -10.18455  -0.85692  -0.85313  -0.74865
 Alpha  occ. eigenvalues --   -0.74861  -0.74499  -0.74475  -0.60486  -0.60485
 Alpha  occ. eigenvalues --   -0.60119  -0.60104  -0.52525  -0.52152  -0.46309
 Alpha  occ. eigenvalues --   -0.45938  -0.44758  -0.44382  -0.42317  -0.42311
 Alpha  occ. eigenvalues --   -0.41962  -0.41917  -0.36926  -0.36542  -0.34530
 Alpha  occ. eigenvalues --   -0.34525  -0.34170  -0.34133  -0.25522  -0.25516
 Alpha  occ. eigenvalues --   -0.25154  -0.25131
 Alpha virt. eigenvalues --   -0.00619  -0.00615  -0.00254  -0.00234   0.05736
 Alpha virt. eigenvalues --    0.06353   0.09825   0.09892   0.10199   0.10350
 Alpha virt. eigenvalues --    0.13402   0.13411   0.13713   0.13832   0.15273

 Mulliken charges:
               1
     1  C    0.036112
     2  H   -0.035368
     3  C    0.035652
     4  H   -0.035774
     5  C    0.035652
     6  H   -0.035774
     7  C    0.035652
     8  H   -0.035774
     9  C    0.035652
    10  H   -0.035774
    11  C    0.036112
    12  H   -0.035368
    13  C    0.032689
    14  C    0.035605
    15  H   -0.036715
    16  H   -0.026961
    17  C    0.036061
    18  H   -0.037505
    19  C    0.035820
    20  H   -0.037442
    21  C    0.036061
    22  H   -0.037505
    23  C    0.035605
    24  H   -0.036715
 Sum of Mulliken charges =   0.00000

 Dipole moment (field-independent basis, Debye):
    X=              0.0000    Y=              0.0000    Z=             -0.1308  Tot=              0.1308
 Quadrupole moment (field-independent basis, Debye-Ang):
   XX=            -70.8703   YY=            -64.1105   ZZ=            -71.2643
   XY=              0.0000   XZ=              0.0000   YZ=              0.0000

 Normal termination of Gaussian 09 at Sun Mar 19 00:53:58 2017.
