 Gaussian 09, Revision D.01,
 Gaussian 09:  EM64L-G09RevD.01 24-Apr-2013

 ----------------------------------------------
 #p b3lyp empiricaldispersion=gd3bj jun-cc-pVTZ
 ----------------------------------------------

 ---------------------
 benzene dimer 3.10425
 ---------------------
 Symbolic Z-matrix:
 Charge =  0 Multiplicity = 1

                         Standard orientation:
 ---------------------------------------------------------------------
 Center     Atomic      Atomic             Coordinates (Angstroms)
 Number     Number       Type             X           Y           Z
 ---------------------------------------------------------------------
      1          6           0       -1.391500    0.000000   -2.800000
      2          1           0       -2.471500    0.000000   -2.800000
      3          6           0       -0.695750    1.205074   -2.800000
      4          1           0       -1.235750    2.140382   -2.800000
      5          6           0       -0.695750   -1.205074   -2.800000
      6          1           0       -1.235750   -2.140382   -2.800000
      7          6           0        0.695750    1.205074   -2.800000
      8          1           0        1.235750    2.140382   -2.800000
      9          6           0        0.695750   -1.205074   -2.800000
     10          1           0        1.235750   -2.140382   -2.800000
     11          6           0        1.391500    0.000000   -2.800000
     12          1           0        2.471500    0.000000   -2.800000
     13          6           0        0.000000    0.000000    1.408500
     14          6           0        0.000000   -1.205074    2.104250
     15          1           0        0.000000   -2.140382    1.564250
     16          1           0        0.000000    0.000000    0.328500
     17          6           0        0.000000   -1.205074    3.495750
     18          1           0        0.000000   -2.140382    4.035750
     19          6           0        0.000000    0.000000    4.191500
     20          1           0        0.000000    0.000000    5.271500
     21          6           0        0.000000    1.205074    3.495750
     22          1           0        0.000000    2.140382    4.035750
     23          6           0        0.000000    1.205074    2.104250
     24          1           0        0.000000    2.140382    1.564250
 ---------------------------------------------------------------------

 SCF Done:  E(RB3LYP) =  -464.710088778     A.U. after   10 cycles

 The electronic state is 1-A1.
 Alpha  occ. eigenvalues --  -10.18355 -10.18331 -10.18324 -10.18271 -10.18264
 Alpha  occ. eigenvalues --  -10.18240 -10.17657 -10.17623 -10.17581 -10.17535
 Alpha  occ. eigenvalues --  -10.17527 -10.17377  -0.86272  -0.85512  -0.75397
 Alpha  occ. eigenvalues --   -0.75382  -0.74668  -0.74613  -0.61051  -0.61047
 Alpha  occ. eigenvalues --   -0.60327  -0.60293  -0.53241  -0.52506  -0.46840
 Alpha  occ. eigenvalues --   -0.46119  -0.45521  -0.44776  -0.42984  -0.42964
 Alpha  occ. eigenvalues --   -0.42284  -0.42218  -0.37730  -0.36964  -0.35234
 Alpha  occ. eigenvalues --   -0.35220  -0.34527  -0.34403  -0.26364  -0.26360
 Alpha  occ. eigenvalues --   -0.25615  -0.25526
 Alpha virt. eigenvalues --   -0.02101  -0.02040  -0.01278  -0.01261  -0.00761
 Alpha virt. eigenvalues --    0.00404   0.00679   0.01215   0.02130   0.02423
 Alpha virt. eigenvalues --    0.03343   0.03360   0.04432   0.04452   0.04515

 Mulliken charges:
               1
     1  C   -0.137745
     2  H    0.118611
     3  C   -0.115846
     4  H    0.117895
     5  C   -0.115846
     6  H    0.117895
     7  C   -0.115846
     8  H    0.117895
     9  C   -0.115846
    10  H    0.117895
    11  C   -0.137745
    12  H    0.118611
    13  C   -0.018984
    14  C   -0.141955
    15  H    0.114461
    16  H    0.124994
    17  C   -0.125996
    18  H    0.116776
    19  C   -0.111500
    20  H    0.108989
    21  C   -0.125996
    22  H    0.116776
    23  C   -0.141955
    24  H    0.114461
 Sum of Mulliken charges =   0.00000

 Dipole moment (field-independent basis, Debye):
    X=              0.0000    Y=              0.0000    Z=             -0.3182  Tot=              0.3182
 Quadrupole moment (field-independent basis, Debye-Ang):
   XX=            -72.1215   YY=            -64.9327   ZZ=            -72.8144
   XY=              0.0000   XZ=              0.0000   YZ=              0.0000

 Normal termination of Gaussian 09 at Sun Mar 19 01:04:07 2017.
