 Gaussian 09, Revision D.01,
 Gaussian 09:  EM64L-G09RevD.01 24-Apr-2013

 ------------
 #p hf 6-31g*
 ------------

 ---------------------
 benzene dimer 2.20425
 ---------------------
 Symbolic Z-matrix:
 Charge =  0 Multiplicity = 1

                         Standard orientation:
 ---------------------------------------------------------------------
 Center     Atomic      Atomic             Coordinates (Angstroms)
 Number     Number       Type             X           Y           Z
 ---------------------------------------------------------------------
      1          6           0       -1.391500    0.000000   -2.350000
      2          1           0       -2.471500    0.000000   -2.350000
      3          6           0       -0.695750    1.205074   -2.350000
      4          1           0       -1.235750    2.140382   -2.350000
      5          6           0       -0.695750   -1.205074   -2.350000
      6          1           0       -1.235750   -2.140382   -2.350000
      7          6           0        0.695750    1.205074   -2.350000
      8          1           0        1.235750    2.140382   -2.350000
      9          6           0        0.695750   -1.205074   -2.350000
     10          1           0        1.235750   -2.140382   -2.350000
     11          6           0        1.391500    0.000000   -2.350000
     12          1           0        2.471500    0.000000   -2.350000
     13          6           0        0.000000    0.000000    0.958500
     14          6           0        0.000000   -1.205074    1.654250
     15          1           0        0.000000   -2.140382    1.114250
     16          1           0        0.000000    0.000000   -0.121500
     17          6           0        0.000000   -1.205074    3.045750
     18          1           0        0.000000   -2.140382    3.585750
     19          6           0        0.000000    0.000000    3.741500
     20          1           0        0.000000    0.000000    4.821500
     21          6           0        0.000000    1.205074    3.045750
     22          1           0        0.000000    2.140382    3.585750
     23          6           0        0.000000    1.205074    1.654250
     24          1           0        0.000000    2.140382    1.114250
 ---------------------------------------------------------------------

 SCF Done:  E(RHF) =  -461.402046870     A.U. after   12 cycles

 The electronic state is 1-A1.
 Alpha  occ. eigenvalues --  -11.23805 -11.23756 -11.23737 -11.23634 -11.23613
 Alpha  occ. eigenvalues --  -11.23564 -11.22267 -11.22216 -11.22086 -11.21934
 Alpha  occ. eigenvalues --  -11.21922 -11.21405  -1.15297  -1.13454  -1.01645
 Alpha  occ. eigenvalues --   -1.01601  -0.99977  -0.99844  -0.82474  -0.82470
 Alpha  occ. eigenvalues --   -0.80856  -0.80828  -0.71134  -0.69515  -0.64502
 Alpha  occ. eigenvalues --   -0.63036  -0.61850  -0.60164  -0.58946  -0.58900
 Alpha  occ. eigenvalues --   -0.57638  -0.57372  -0.50509  -0.49523  -0.49496
 Alpha  occ. eigenvalues --   -0.48621  -0.47947  -0.46782  -0.33977  -0.33805
 Alpha  occ. eigenvalues --   -0.32107  -0.31613
 Alpha virt. eigenvalues --    0.13942   0.14042   0.15876   0.15896   0.22799
 Alpha virt. eigenvalues --    0.24904   0.28250   0.28994   0.30464   0.30971
 Alpha virt. eigenvalues --    0.32787   0.33070   0.33310   0.33994   0.34189

 Mulliken charges:
               1
     1  C   -0.198889
     2  H    0.206180
     3  C   -0.205319
     4  H    0.204583
     5  C   -0.205319
     6  H    0.204583
     7  C   -0.205319
     8  H    0.204583
     9  C   -0.205319
    10  H    0.204583
    11  C   -0.198889
    12  H    0.206180
    13  C   -0.192459
    14  C   -0.213138
    15  H    0.191995
    16  H    0.242190
    17  C   -0.198852
    18  H    0.194064
    19  C   -0.203964
    20  H    0.194457
    21  C   -0.198852
    22  H    0.194064
    23  C   -0.213138
    24  H    0.191995
 Sum of Mulliken charges =   0.00000

 Dipole moment (field-independent basis, Debye):
    X=              0.0000    Y=              0.0000    Z=             -0.7044  Tot=              0.7044
 Quadrupole moment (field-independent basis, Debye-Ang):
   XX=            -70.8375   YY=            -63.0363   ZZ=            -72.1580
   XY=              0.0000   XZ=              0.0000   YZ=              0.0000

 Normal termination of Gaussian 09 at Sun Mar 19 00:42:19 2017.
