 Gaussian 09, Revision D.01,
 Gaussian 09:  EM64L-G09RevD.01 24-Apr-2013

 ------------------------------------------
 #p b3lyp empiricaldispersion=gd3bj cc-pVQZ
 ------------------------------------------

 ---------------------
 benzene dimer 3.40425
 ---------------------
 Symbolic Z-matrix:
 Charge =  0 Multiplicity = 1

                         Standard orientation:
 ---------------------------------------------------------------------
 Center     Atomic      Atomic             Coordinates (Angstroms)
 Number     Number       Type             X           Y           Z
 ---------------------------------------------------------------------
      1          6           0       -1.391500    0.000000   -2.950000
      2          1           0       -2.471500    0.000000   -2.950000
      3          6           0       -0.695750    1.205074   -2.950000
      4          1           0       -1.235750    2.140382   -2.950000
      5          6           0       -0.695750   -1.205074   -2.950000
      6          1           0       -1.235750   -2.140382   -2.950000
      7          6           0        0.695750    1.205074   -2.950000
      8          1           0        1.235750    2.140382   -2.950000
      9          6           0        0.695750   -1.205074   -2.950000
     10          1           0        1.235750   -2.140382   -2.950000
     11          6           0        1.391500    0.000000   -2.950000
     12          1           0        2.471500    0.000000   -2.950000
     13          6           0        0.000000    0.000000    1.558500
     14          6           0        0.000000   -1.205074    2.254250
     15          1           0        0.000000   -2.140382    1.714250
     16          1           0        0.000000    0.000000    0.478500
     17          6           0        0.000000   -1.205074    3.645750
     18          1           0        0.000000   -2.140382    4.185750
     19          6           0        0.000000    0.000000    4.341500
     20          1           0        0.000000    0.000000    5.421500
     21          6           0        0.000000    1.205074    3.645750
     22          1           0        0.000000    2.140382    4.185750
     23          6           0        0.000000    1.205074    2.254250
     24          1           0        0.000000    2.140382    1.714250
 ---------------------------------------------------------------------

 SCF Done:  E(RB3LYP) =  -464.740319718     A.U. after   14 cycles

 The electronic state is 1-A1.
 Alpha  occ. eigenvalues --  -10.17924 -10.17899 -10.17893 -10.17838 -10.17831
 Alpha  occ. eigenvalues --  -10.17805 -10.17309 -10.17274 -10.17235 -10.17193
 Alpha  occ. eigenvalues --  -10.17186 -10.17063  -0.86093  -0.85433  -0.75234
 Alpha  occ. eigenvalues --   -0.75222  -0.74598  -0.74553  -0.60920  -0.60917
 Alpha  occ. eigenvalues --   -0.60287  -0.60258  -0.53142  -0.52498  -0.46748
 Alpha  occ. eigenvalues --   -0.46113  -0.45397  -0.44747  -0.42877  -0.42861
 Alpha  occ. eigenvalues --   -0.42265  -0.42192  -0.37608  -0.36941  -0.35134
 Alpha  occ. eigenvalues --   -0.35123  -0.34516  -0.34429  -0.26229  -0.26223
 Alpha  occ. eigenvalues --   -0.25584  -0.25523
 Alpha virt. eigenvalues --   -0.01759  -0.01746  -0.01095  -0.01084   0.01920
 Alpha virt. eigenvalues --    0.03487   0.04416   0.05272   0.06070   0.06104
 Alpha virt. eigenvalues --    0.07936   0.07995   0.08576   0.08682   0.10960

 Mulliken charges:
               1
     1  C   -0.113412
     2  H    0.115124
     3  C   -0.118076
     4  H    0.117615
     5  C   -0.118076
     6  H    0.117615
     7  C   -0.118076
     8  H    0.117615
     9  C   -0.118076
    10  H    0.117615
    11  C   -0.113412
    12  H    0.115124
    13  C   -0.076199
    14  C   -0.140062
    15  H    0.117856
    16  H    0.121324
    17  C   -0.116326
    18  H    0.114274
    19  C   -0.112806
    20  H    0.114616
    21  C   -0.116326
    22  H    0.114274
    23  C   -0.140062
    24  H    0.117856
 Sum of Mulliken charges =   0.00000

 Dipole moment (field-independent basis, Debye):
    X=              0.0000    Y=              0.0000    Z=             -0.2656  Tot=              0.2656
 Quadrupole moment (field-independent basis, Debye-Ang):
   XX=            -71.8025   YY=            -64.5725   ZZ=            -72.3552
   XY=              0.0000   XZ=              0.0000   YZ=              0.0000

 Normal termination of Gaussian 09 at Sun Mar 19 02:16:57 2017.
