 Gaussian 09, Revision D.01,
 Gaussian 09:  EM64L-G09RevD.01 24-Apr-2013

 ------------------------------------------
 #p b3lyp empiricaldispersion=gd3bj cc-pVTZ
 ------------------------------------------

 ---------------------
 benzene dimer 2.00425
 ---------------------
 Symbolic Z-matrix:
 Charge =  0 Multiplicity = 1

                         Standard orientation:
 ---------------------------------------------------------------------
 Center     Atomic      Atomic             Coordinates (Angstroms)
 Number     Number       Type             X           Y           Z
 ---------------------------------------------------------------------
      1          6           0       -1.391500    0.000000   -2.250000
      2          1           0       -2.471500    0.000000   -2.250000
      3          6           0       -0.695750    1.205074   -2.250000
      4          1           0       -1.235750    2.140382   -2.250000
      5          6           0       -0.695750   -1.205074   -2.250000
      6          1           0       -1.235750   -2.140382   -2.250000
      7          6           0        0.695750    1.205074   -2.250000
      8          1           0        1.235750    2.140382   -2.250000
      9          6           0        0.695750   -1.205074   -2.250000
     10          1           0        1.235750   -2.140382   -2.250000
     11          6           0        1.391500    0.000000   -2.250000
     12          1           0        2.471500    0.000000   -2.250000
     13          6           0        0.000000    0.000000    0.858500
     14          6           0        0.000000   -1.205074    1.554250
     15          1           0        0.000000   -2.140382    1.014250
     16          1           0        0.000000    0.000000   -0.221500
     17          6           0        0.000000   -1.205074    2.945750
     18          1           0        0.000000   -2.140382    3.485750
     19          6           0        0.000000    0.000000    3.641500
     20          1           0        0.000000    0.000000    4.721500
     21          6           0        0.000000    1.205074    2.945750
     22          1           0        0.000000    2.140382    3.485750
     23          6           0        0.000000    1.205074    1.554250
     24          1           0        0.000000    2.140382    1.014250
 ---------------------------------------------------------------------

 SCF Done:  E(RB3LYP) =  -464.706082554     A.U. after   13 cycles

 The electronic state is 1-A1.
 Alpha  occ. eigenvalues --  -10.18467 -10.18445 -10.18435 -10.18385 -10.18374
 Alpha  occ. eigenvalues --  -10.18353 -10.16964 -10.16938 -10.16877 -10.16724
 Alpha  occ. eigenvalues --  -10.16721 -10.16166  -0.86597  -0.84739  -0.75609
 Alpha  occ. eigenvalues --   -0.75569  -0.73970  -0.73844  -0.61210  -0.61207
 Alpha  occ. eigenvalues --   -0.59642  -0.59617  -0.53480  -0.51905  -0.46981
 Alpha  occ. eigenvalues --   -0.45674  -0.45641  -0.44037  -0.43179  -0.43137
 Alpha  occ. eigenvalues --   -0.42224  -0.41647  -0.37343  -0.36276  -0.35392
 Alpha  occ. eigenvalues --   -0.35366  -0.33861  -0.32952  -0.26898  -0.26648
 Alpha  occ. eigenvalues --   -0.24945  -0.24474
 Alpha virt. eigenvalues --   -0.02167  -0.01976  -0.00172  -0.00127   0.03061
 Alpha virt. eigenvalues --    0.05380   0.05571   0.06815   0.08438   0.08618
 Alpha virt. eigenvalues --    0.09878   0.10551   0.12356   0.12469   0.12896

 Mulliken charges:
               1
     1  C   -0.088939
     2  H    0.106401
     3  C   -0.112630
     4  H    0.109161
     5  C   -0.112630
     6  H    0.109161
     7  C   -0.112630
     8  H    0.109161
     9  C   -0.112630
    10  H    0.109161
    11  C   -0.088939
    12  H    0.106401
    13  C   -0.004546
    14  C   -0.126647
    15  H    0.096239
    16  H    0.058085
    17  C   -0.102103
    18  H    0.101768
    19  C   -0.114644
    20  H    0.101543
    21  C   -0.102103
    22  H    0.101768
    23  C   -0.126647
    24  H    0.096239
 Sum of Mulliken charges =   0.00000

 Dipole moment (field-independent basis, Debye):
    X=              0.0000    Y=              0.0000    Z=             -0.7165  Tot=              0.7165
 Quadrupole moment (field-independent basis, Debye-Ang):
   XX=            -71.1809   YY=            -64.5741   ZZ=            -72.7777
   XY=              0.0000   XZ=              0.0000   YZ=              0.0000

 Normal termination of Gaussian 09 at Sun Mar 19 00:28:58 2017.
