 Gaussian 09, Revision D.01,
 Gaussian 09:  EM64L-G09RevD.01 24-Apr-2013

 -------------------------------------------
 #p pbe1pbe empiricaldispersion=gd3bj 6-31g*
 -------------------------------------------

 ---------------------
 benzene dimer 2.20425
 ---------------------
 Symbolic Z-matrix:
 Charge =  0 Multiplicity = 1

                         Standard orientation:
 ---------------------------------------------------------------------
 Center     Atomic      Atomic             Coordinates (Angstroms)
 Number     Number       Type             X           Y           Z
 ---------------------------------------------------------------------
      1          6           0       -1.391500    0.000000   -2.350000
      2          1           0       -2.471500    0.000000   -2.350000
      3          6           0       -0.695750    1.205074   -2.350000
      4          1           0       -1.235750    2.140382   -2.350000
      5          6           0       -0.695750   -1.205074   -2.350000
      6          1           0       -1.235750   -2.140382   -2.350000
      7          6           0        0.695750    1.205074   -2.350000
      8          1           0        1.235750    2.140382   -2.350000
      9          6           0        0.695750   -1.205074   -2.350000
     10          1           0        1.235750   -2.140382   -2.350000
     11          6           0        1.391500    0.000000   -2.350000
     12          1           0        2.471500    0.000000   -2.350000
     13          6           0        0.000000    0.000000    0.958500
     14          6           0        0.000000   -1.205074    1.654250
     15          1           0        0.000000   -2.140382    1.114250
     16          1           0        0.000000    0.000000   -0.121500
     17          6           0        0.000000   -1.205074    3.045750
     18          1           0        0.000000   -2.140382    3.585750
     19          6           0        0.000000    0.000000    3.741500
     20          1           0        0.000000    0.000000    4.821500
     21          6           0        0.000000    1.205074    3.045750
     22          1           0        0.000000    2.140382    3.585750
     23          6           0        0.000000    1.205074    1.654250
     24          1           0        0.000000    2.140382    1.114250
 ---------------------------------------------------------------------

 SCF Done:  E(RPBE1PBE) =  -463.951540944     A.U. after   13 cycles

 The electronic state is 1-A1.
 Alpha  occ. eigenvalues --  -10.24147 -10.24124 -10.24108 -10.24062 -10.24043
 Alpha  occ. eigenvalues --  -10.24022 -10.22637 -10.22600 -10.22552 -10.22406
 Alpha  occ. eigenvalues --  -10.22402 -10.21895  -0.88276  -0.86516  -0.77118
 Alpha  occ. eigenvalues --   -0.77080  -0.75516  -0.75379  -0.62328  -0.62323
 Alpha  occ. eigenvalues --   -0.60768  -0.60708  -0.54308  -0.52736  -0.47859
 Alpha  occ. eigenvalues --   -0.46427  -0.45996  -0.44358  -0.43647  -0.43604
 Alpha  occ. eigenvalues --   -0.42439  -0.42141  -0.37930  -0.36625  -0.35597
 Alpha  occ. eigenvalues --   -0.35572  -0.34077  -0.33434  -0.26647  -0.26557
 Alpha  occ. eigenvalues --   -0.24882  -0.24575
 Alpha virt. eigenvalues --    0.00176   0.00231   0.01911   0.01965   0.09725
 Alpha virt. eigenvalues --    0.11607   0.15053   0.15633   0.16968   0.16979
 Alpha virt. eigenvalues --    0.17508   0.18610   0.19298   0.19466   0.20377

 Mulliken charges:
               1
     1  C   -0.166564
     2  H    0.174654
     3  C   -0.172293
     4  H    0.173124
     5  C   -0.172293
     6  H    0.173124
     7  C   -0.172293
     8  H    0.173124
     9  C   -0.172293
    10  H    0.173124
    11  C   -0.166564
    12  H    0.174654
    13  C   -0.144902
    14  C   -0.178097
    15  H    0.158742
    16  H    0.186725
    17  C   -0.171121
    18  H    0.162846
    19  C   -0.169405
    20  H    0.163336
    21  C   -0.171121
    22  H    0.162846
    23  C   -0.178097
    24  H    0.158742
 Sum of Mulliken charges =   0.00000

 Dipole moment (field-independent basis, Debye):
    X=              0.0000    Y=              0.0000    Z=             -0.7259  Tot=              0.7259
 Quadrupole moment (field-independent basis, Debye-Ang):
   XX=            -69.2674   YY=            -62.0055   ZZ=            -70.3259
   XY=              0.0000   XZ=              0.0000   YZ=              0.0000

 Normal termination of Gaussian 09 at Sun Mar 19 01:34:47 2017.
