 Gaussian 09, Revision D.01,
 Gaussian 09:  EM64L-G09RevD.01 24-Apr-2013

 -------------
 #p mp2 6-31g*
 -------------

 ---------------------
 benzene dimer 3.00425
 ---------------------
 Symbolic Z-matrix:
 Charge =  0 Multiplicity = 1

                         Standard orientation:
 ---------------------------------------------------------------------
 Center     Atomic      Atomic             Coordinates (Angstroms)
 Number     Number       Type             X           Y           Z
 ---------------------------------------------------------------------
      1          6           0       -1.391500    0.000000   -2.750000
      2          1           0       -2.471500    0.000000   -2.750000
      3          6           0       -0.695750    1.205074   -2.750000
      4          1           0       -1.235750    2.140382   -2.750000
      5          6           0       -0.695750   -1.205074   -2.750000
      6          1           0       -1.235750   -2.140382   -2.750000
      7          6           0        0.695750    1.205074   -2.750000
      8          1           0        1.235750    2.140382   -2.750000
      9          6           0        0.695750   -1.205074   -2.750000
     10          1           0        1.235750   -2.140382   -2.750000
     11          6           0        1.391500    0.000000   -2.750000
     12          1           0        2.471500    0.000000   -2.750000
     13          6           0        0.000000    0.000000    1.358500
     14          6           0        0.000000   -1.205074    2.054250
     15          1           0        0.000000   -2.140382    1.514250
     16          1           0        0.000000    0.000000    0.278500
     17          6           0        0.000000   -1.205074    3.445750
     18          1           0        0.000000   -2.140382    3.985750
     19          6           0        0.000000    0.000000    4.141500
     20          1           0        0.000000    0.000000    5.221500
     21          6           0        0.000000    1.205074    3.445750
     22          1           0        0.000000    2.140382    3.985750
     23          6           0        0.000000    1.205074    2.054250
     24          1           0        0.000000    2.140382    1.514250
 ---------------------------------------------------------------------

 SCF Done:  E(RHF) =  -461.406814726     A.U. after   11 cycles
 E2 =    -0.1511321171D+01 EUMP2 =    -0.46291813589673D+03

 The electronic state is 1-A1.
 Alpha  occ. eigenvalues --  -11.23542 -11.23490 -11.23479 -11.23368 -11.23357
 Alpha  occ. eigenvalues --  -11.23304 -11.22623 -11.22562 -11.22473 -11.22399
 Alpha  occ. eigenvalues --  -11.22385 -11.22165  -1.14883  -1.13878  -1.01318
 Alpha  occ. eigenvalues --   -1.01298  -1.00363  -1.00286  -0.82207  -0.82203
 Alpha  occ. eigenvalues --   -0.81257  -0.81216  -0.70813  -0.69846  -0.64278
 Alpha  occ. eigenvalues --   -0.63337  -0.61573  -0.60591  -0.58654  -0.58631
 Alpha  occ. eigenvalues --   -0.57737  -0.57643  -0.50095  -0.49265  -0.49249
 Alpha  occ. eigenvalues --   -0.49007  -0.48339  -0.48068  -0.33396  -0.33384
 Alpha  occ. eigenvalues --   -0.32449  -0.32307
 Alpha virt. eigenvalues --    0.14428   0.14444   0.15382   0.15455   0.23182
 Alpha virt. eigenvalues --    0.24121   0.28977   0.29147   0.29883   0.30044
 Alpha virt. eigenvalues --    0.32958   0.32965   0.33456   0.33674   0.33737

 Mulliken charges:
               1
     1  C   -0.199811
     2  H    0.203288
     3  C   -0.202503
     4  H    0.202141
     5  C   -0.202503
     6  H    0.202141
     7  C   -0.202503
     8  H    0.202141
     9  C   -0.202503
    10  H    0.202141
    11  C   -0.199811
    12  H    0.203288
    13  C   -0.211189
    14  C   -0.203691
    15  H    0.197231
    16  H    0.229577
    17  C   -0.199494
    18  H    0.196481
    19  C   -0.201651
    20  H    0.196703
    21  C   -0.199494
    22  H    0.196481
    23  C   -0.203691
    24  H    0.197231
 Sum of Mulliken charges =   0.00000

 Dipole moment (field-independent basis, Debye):
    X=              0.0000    Y=              0.0000    Z=             -0.3861  Tot=              0.3861
 Quadrupole moment (field-independent basis, Debye-Ang):
   XX=            -71.0344   YY=            -62.8700   ZZ=            -71.7815
   XY=              0.0000   XZ=              0.0000   YZ=              0.0000

 Normal termination of Gaussian 09 at Sun Mar 19 00:48:57 2017.
