 Gaussian 09, Revision D.01,
 Gaussian 09:  EM64L-G09RevD.01 24-Apr-2013

 ------------------------------------------------
 #p pbe1pbe empiricaldispersion=gd3bj may-cc-pVQZ
 ------------------------------------------------

 ---------------------
 benzene dimer 2.20425
 ---------------------
 Symbolic Z-matrix:
 Charge =  0 Multiplicity = 1

                         Standard orientation:
 ---------------------------------------------------------------------
 Center     Atomic      Atomic             Coordinates (Angstroms)
 Number     Number       Type             X           Y           Z
 ---------------------------------------------------------------------
      1          6           0       -1.391500    0.000000   -2.350000
      2          1           0       -2.471500    0.000000   -2.350000
      3          6           0       -0.695750    1.205074   -2.350000
      4          1           0       -1.235750    2.140382   -2.350000
      5          6           0       -0.695750   -1.205074   -2.350000
      6          1           0       -1.235750   -2.140382   -2.350000
      7          6           0        0.695750    1.205074   -2.350000
      8          1           0        1.235750    2.140382   -2.350000
      9          6           0        0.695750   -1.205074   -2.350000
     10          1           0        1.235750   -2.140382   -2.350000
     11          6           0        1.391500    0.000000   -2.350000
     12          1           0        2.471500    0.000000   -2.350000
     13          6           0        0.000000    0.000000    0.958500
     14          6           0        0.000000   -1.205074    1.654250
     15          1           0        0.000000   -2.140382    1.114250
     16          1           0        0.000000    0.000000   -0.121500
     17          6           0        0.000000   -1.205074    3.045750
     18          1           0        0.000000   -2.140382    3.585750
     19          6           0        0.000000    0.000000    3.741500
     20          1           0        0.000000    0.000000    4.821500
     21          6           0        0.000000    1.205074    3.045750
     22          1           0        0.000000    2.140382    3.585750
     23          6           0        0.000000    1.205074    1.654250
     24          1           0        0.000000    2.140382    1.114250
 ---------------------------------------------------------------------

 SCF Done:  E(RPBE1PBE) =  -464.135856834     A.U. after   10 cycles

 The electronic state is 1-A1.
 Alpha  occ. eigenvalues --  -10.23418 -10.23392 -10.23381 -10.23327 -10.23315
 Alpha  occ. eigenvalues --  -10.23290 -10.22098 -10.22065 -10.22006 -10.21892
 Alpha  occ. eigenvalues --  -10.21888 -10.21475  -0.88985  -0.87438  -0.77731
 Alpha  occ. eigenvalues --   -0.77697  -0.76323  -0.76208  -0.62915  -0.62911
 Alpha  occ. eigenvalues --   -0.61544  -0.61502  -0.54897  -0.53522  -0.48210
 Alpha  occ. eigenvalues --   -0.46971  -0.46918  -0.45493  -0.44201  -0.44161
 Alpha  occ. eigenvalues --   -0.43235  -0.42873  -0.38877  -0.37825  -0.36199
 Alpha  occ. eigenvalues --   -0.36173  -0.34863  -0.34278  -0.27718  -0.27565
 Alpha  occ. eigenvalues --   -0.26096  -0.25751
 Alpha virt. eigenvalues --   -0.01840  -0.01638  -0.00234  -0.00133  -0.00056
 Alpha virt. eigenvalues --    0.01140   0.01145   0.01687   0.02849   0.03017
 Alpha virt. eigenvalues --    0.03528   0.03689   0.04597   0.04877   0.05238

 Mulliken charges:
               1
     1  C   -0.175291
     2  H    0.156743
     3  C   -0.135443
     4  H    0.154899
     5  C   -0.135443
     6  H    0.154899
     7  C   -0.135443
     8  H    0.154899
     9  C   -0.135443
    10  H    0.154899
    11  C   -0.175291
    12  H    0.156743
    13  C   -0.509094
    14  C   -0.120997
    15  H    0.210164
    16  H    0.160846
    17  C   -0.136841
    18  H    0.182575
    19  C   -0.138489
    20  H    0.176206
    21  C   -0.136841
    22  H    0.182575
    23  C   -0.120997
    24  H    0.210164
 Sum of Mulliken charges =   0.00000

 Dipole moment (field-independent basis, Debye):
    X=              0.0000    Y=              0.0000    Z=             -0.6480  Tot=              0.6480
 Quadrupole moment (field-independent basis, Debye-Ang):
   XX=            -71.0838   YY=            -63.8163   ZZ=            -72.3813
   XY=              0.0000   XZ=              0.0000   YZ=              0.0000

 Normal termination of Gaussian 09 at Sun Mar 19 04:31:17 2017.
