 Gaussian 09, Revision D.01,
 Gaussian 09:  EM64L-G09RevD.01 24-Apr-2013

 ------------------------------------------
 #p b3lyp empiricaldispersion=gd3bj cc-pVDZ
 ------------------------------------------

 ---------------------
 benzene dimer 2.90425
 ---------------------
 Symbolic Z-matrix:
 Charge =  0 Multiplicity = 1

                         Standard orientation:
 ---------------------------------------------------------------------
 Center     Atomic      Atomic             Coordinates (Angstroms)
 Number     Number       Type             X           Y           Z
 ---------------------------------------------------------------------
      1          6           0       -1.391500    0.000000   -2.700000
      2          1           0       -2.471500    0.000000   -2.700000
      3          6           0       -0.695750    1.205074   -2.700000
      4          1           0       -1.235750    2.140382   -2.700000
      5          6           0       -0.695750   -1.205074   -2.700000
      6          1           0       -1.235750   -2.140382   -2.700000
      7          6           0        0.695750    1.205074   -2.700000
      8          1           0        1.235750    2.140382   -2.700000
      9          6           0        0.695750   -1.205074   -2.700000
     10          1           0        1.235750   -2.140382   -2.700000
     11          6           0        1.391500    0.000000   -2.700000
     12          1           0        2.471500    0.000000   -2.700000
     13          6           0        0.000000    0.000000    1.308500
     14          6           0        0.000000   -1.205074    2.004250
     15          1           0        0.000000   -2.140382    1.464250
     16          1           0        0.000000    0.000000    0.228500
     17          6           0        0.000000   -1.205074    3.395750
     18          1           0        0.000000   -2.140382    3.935750
     19          6           0        0.000000    0.000000    4.091500
     20          1           0        0.000000    0.000000    5.171500
     21          6           0        0.000000    1.205074    3.395750
     22          1           0        0.000000    2.140382    3.935750
     23          6           0        0.000000    1.205074    2.004250
     24          1           0        0.000000    2.140382    1.464250
 ---------------------------------------------------------------------

 SCF Done:  E(RB3LYP) =  -464.566216298     A.U. after   13 cycles

 The electronic state is 1-A1.
 Alpha  occ. eigenvalues --  -10.19188 -10.19168 -10.19158 -10.19117 -10.19106
 Alpha  occ. eigenvalues --  -10.19088 -10.18346 -10.18315 -10.18279 -10.18212
 Alpha  occ. eigenvalues --  -10.18207 -10.18001  -0.85928  -0.85013  -0.75085
 Alpha  occ. eigenvalues --   -0.75067  -0.74218  -0.74148  -0.60685  -0.60682
 Alpha  occ. eigenvalues --   -0.59828  -0.59782  -0.52719  -0.51848  -0.46483
 Alpha  occ. eigenvalues --   -0.45637  -0.44967  -0.44076  -0.42517  -0.42496
 Alpha  occ. eigenvalues --   -0.41693  -0.41625  -0.37154  -0.36257  -0.34723
 Alpha  occ. eigenvalues --   -0.34710  -0.33889  -0.33705  -0.25780  -0.25778
 Alpha  occ. eigenvalues --   -0.24889  -0.24782
 Alpha virt. eigenvalues --   -0.00857  -0.00850   0.00030   0.00072   0.05317
 Alpha virt. eigenvalues --    0.06915   0.09021   0.09796   0.10810   0.10957
 Alpha virt. eigenvalues --    0.13289   0.13298   0.14161   0.14360   0.15063

 Mulliken charges:
               1
     1  C    0.036421
     2  H   -0.033734
     3  C    0.034152
     4  H   -0.034434
     5  C    0.034152
     6  H   -0.034434
     7  C    0.034152
     8  H   -0.034434
     9  C    0.034152
    10  H   -0.034434
    11  C    0.036421
    12  H   -0.033734
    13  C    0.045594
    14  C    0.029115
    15  H   -0.041458
    16  H   -0.015960
    17  C    0.036850
    18  H   -0.039079
    19  C    0.034275
    20  H   -0.039008
    21  C    0.036850
    22  H   -0.039079
    23  C    0.029115
    24  H   -0.041458
 Sum of Mulliken charges =   0.00000

 Dipole moment (field-independent basis, Debye):
    X=              0.0000    Y=              0.0000    Z=             -0.3869  Tot=              0.3869
 Quadrupole moment (field-independent basis, Debye-Ang):
   XX=            -70.7364   YY=            -64.2108   ZZ=            -71.3982
   XY=              0.0000   XZ=              0.0000   YZ=              0.0000

 Normal termination of Gaussian 09 at Sun Mar 19 00:47:49 2017.
