 Gaussian 09, Revision D.01,
 Gaussian 09:  EM64L-G09RevD.01 24-Apr-2013

 ----------------------------------------------
 #p b3lyp empiricaldispersion=gd3bj jul-cc-pVDZ
 ----------------------------------------------

 ---------------------
 benzene dimer 3.10425
 ---------------------
 Symbolic Z-matrix:
 Charge =  0 Multiplicity = 1

                         Standard orientation:
 ---------------------------------------------------------------------
 Center     Atomic      Atomic             Coordinates (Angstroms)
 Number     Number       Type             X           Y           Z
 ---------------------------------------------------------------------
      1          6           0       -1.391500    0.000000   -2.800000
      2          1           0       -2.471500    0.000000   -2.800000
      3          6           0       -0.695750    1.205074   -2.800000
      4          1           0       -1.235750    2.140382   -2.800000
      5          6           0       -0.695750   -1.205074   -2.800000
      6          1           0       -1.235750   -2.140382   -2.800000
      7          6           0        0.695750    1.205074   -2.800000
      8          1           0        1.235750    2.140382   -2.800000
      9          6           0        0.695750   -1.205074   -2.800000
     10          1           0        1.235750   -2.140382   -2.800000
     11          6           0        1.391500    0.000000   -2.800000
     12          1           0        2.471500    0.000000   -2.800000
     13          6           0        0.000000    0.000000    1.408500
     14          6           0        0.000000   -1.205074    2.104250
     15          1           0        0.000000   -2.140382    1.564250
     16          1           0        0.000000    0.000000    0.328500
     17          6           0        0.000000   -1.205074    3.495750
     18          1           0        0.000000   -2.140382    4.035750
     19          6           0        0.000000    0.000000    4.191500
     20          1           0        0.000000    0.000000    5.271500
     21          6           0        0.000000    1.205074    3.495750
     22          1           0        0.000000    2.140382    4.035750
     23          6           0        0.000000    1.205074    2.104250
     24          1           0        0.000000    2.140382    1.564250
 ---------------------------------------------------------------------

 SCF Done:  E(RB3LYP) =  -464.583387572     A.U. after   11 cycles

 The electronic state is 1-A1.
 Alpha  occ. eigenvalues --  -10.19561 -10.19545 -10.19538 -10.19490 -10.19483
 Alpha  occ. eigenvalues --  -10.19460 -10.18863 -10.18835 -10.18795 -10.18746
 Alpha  occ. eigenvalues --  -10.18741 -10.18585  -0.86484  -0.85731  -0.75589
 Alpha  occ. eigenvalues --   -0.75574  -0.74867  -0.74813  -0.61150  -0.61147
 Alpha  occ. eigenvalues --   -0.60432  -0.60399  -0.53212  -0.52483  -0.46853
 Alpha  occ. eigenvalues --   -0.46137  -0.45501  -0.44763  -0.42953  -0.42934
 Alpha  occ. eigenvalues --   -0.42261  -0.42193  -0.37679  -0.36920  -0.35142
 Alpha  occ. eigenvalues --   -0.35129  -0.34443  -0.34317  -0.26320  -0.26313
 Alpha  occ. eigenvalues --   -0.25577  -0.25487
 Alpha virt. eigenvalues --   -0.02028  -0.01965  -0.01211  -0.01192  -0.00298
 Alpha virt. eigenvalues --    0.00928   0.01083   0.01689   0.02642   0.02897
 Alpha virt. eigenvalues --    0.03884   0.03894   0.05125   0.05183   0.05541

 Mulliken charges:
               1
     1  C    0.223535
     2  H   -0.208396
     3  C    0.201870
     4  H   -0.206396
     5  C    0.201870
     6  H   -0.206396
     7  C    0.201870
     8  H   -0.206396
     9  C    0.201870
    10  H   -0.206396
    11  C    0.223535
    12  H   -0.208396
    13  C    0.390979
    14  C    0.193893
    15  H   -0.194105
    16  H   -0.244745
    17  C    0.136733
    18  H   -0.199688
    19  C    0.169189
    20  H   -0.201263
    21  C    0.136733
    22  H   -0.199688
    23  C    0.193893
    24  H   -0.194105
 Sum of Mulliken charges =   0.00000

 Dipole moment (field-independent basis, Debye):
    X=              0.0000    Y=              0.0000    Z=             -0.3182  Tot=              0.3182
 Quadrupole moment (field-independent basis, Debye-Ang):
   XX=            -72.2297   YY=            -65.2204   ZZ=            -72.8970
   XY=              0.0000   XZ=              0.0000   YZ=              0.0000

 Normal termination of Gaussian 09 at Sun Mar 19 00:53:57 2017.
