 Gaussian 09, Revision D.01,
 Gaussian 09:  EM64L-G09RevD.01 24-Apr-2013

 ----------------------------------------------
 #p b3lyp empiricaldispersion=gd3bj may-cc-pVQZ
 ----------------------------------------------

 ---------------------
 benzene dimer 3.90425
 ---------------------
 Symbolic Z-matrix:
 Charge =  0 Multiplicity = 1

                         Standard orientation:
 ---------------------------------------------------------------------
 Center     Atomic      Atomic             Coordinates (Angstroms)
 Number     Number       Type             X           Y           Z
 ---------------------------------------------------------------------
      1          6           0       -1.391500    0.000000   -3.200000
      2          1           0       -2.471500    0.000000   -3.200000
      3          6           0       -0.695750    1.205074   -3.200000
      4          1           0       -1.235750    2.140382   -3.200000
      5          6           0       -0.695750   -1.205074   -3.200000
      6          1           0       -1.235750   -2.140382   -3.200000
      7          6           0        0.695750    1.205074   -3.200000
      8          1           0        1.235750    2.140382   -3.200000
      9          6           0        0.695750   -1.205074   -3.200000
     10          1           0        1.235750   -2.140382   -3.200000
     11          6           0        1.391500    0.000000   -3.200000
     12          1           0        2.471500    0.000000   -3.200000
     13          6           0        0.000000    0.000000    1.808500
     14          6           0        0.000000   -1.205074    2.504250
     15          1           0        0.000000   -2.140382    1.964250
     16          1           0        0.000000    0.000000    0.728500
     17          6           0        0.000000   -1.205074    3.895750
     18          1           0        0.000000   -2.140382    4.435750
     19          6           0        0.000000    0.000000    4.591500
     20          1           0        0.000000    0.000000    5.671500
     21          6           0        0.000000    1.205074    3.895750
     22          1           0        0.000000    2.140382    4.435750
     23          6           0        0.000000    1.205074    2.504250
     24          1           0        0.000000    2.140382    1.964250
 ---------------------------------------------------------------------

 SCF Done:  E(RB3LYP) =  -464.740259400     A.U. after    9 cycles

 The electronic state is 1-A1.
 Alpha  occ. eigenvalues --  -10.17957 -10.17930 -10.17926 -10.17869 -10.17865
 Alpha  occ. eigenvalues --  -10.17838 -10.17496 -10.17463 -10.17430 -10.17392
 Alpha  occ. eigenvalues --  -10.17387 -10.17300  -0.86118  -0.85629  -0.75255
 Alpha  occ. eigenvalues --   -0.75247  -0.74781  -0.74750  -0.60939  -0.60937
 Alpha  occ. eigenvalues --   -0.60466  -0.60446  -0.53159  -0.52677  -0.46760
 Alpha  occ. eigenvalues --   -0.46281  -0.45422  -0.44938  -0.42893  -0.42882
 Alpha  occ. eigenvalues --   -0.42434  -0.42377  -0.37623  -0.37127  -0.35151
 Alpha  occ. eigenvalues --   -0.35143  -0.34687  -0.34636  -0.26245  -0.26237
 Alpha  occ. eigenvalues --   -0.25767  -0.25730
 Alpha virt. eigenvalues --   -0.01970  -0.01949  -0.01463  -0.01459  -0.01039
 Alpha virt. eigenvalues --    0.00020   0.00457   0.00905   0.01631   0.01822
 Alpha virt. eigenvalues --    0.02962   0.03009   0.03661   0.03740   0.03781

 Mulliken charges:
               1
     1  C   -0.183726
     2  H    0.157597
     3  C   -0.147216
     4  H    0.159351
     5  C   -0.147216
     6  H    0.159351
     7  C   -0.147216
     8  H    0.159351
     9  C   -0.147216
    10  H    0.159351
    11  C   -0.183726
    12  H    0.157597
    13  C   -0.189632
    14  C   -0.140243
    15  H    0.165370
    16  H    0.190979
    17  C   -0.167976
    18  H    0.159031
    19  C   -0.189847
    20  H    0.159853
    21  C   -0.167976
    22  H    0.159031
    23  C   -0.140243
    24  H    0.165370
 Sum of Mulliken charges =   0.00000

 Dipole moment (field-independent basis, Debye):
    X=              0.0000    Y=              0.0000    Z=             -0.1879  Tot=              0.1879
 Quadrupole moment (field-independent basis, Debye-Ang):
   XX=            -72.1556   YY=            -64.8728   ZZ=            -72.6602
   XY=              0.0000   XZ=              0.0000   YZ=              0.0000

 Normal termination of Gaussian 09 at Sun Mar 19 01:50:21 2017.
