 Gaussian 09, Revision D.01,
 Gaussian 09:  EM64L-G09RevD.01 24-Apr-2013

 ------------------------------------------
 #p b3lyp empiricaldispersion=gd3bj cc-pVQZ
 ------------------------------------------

 ---------------------
 benzene dimer 3.10425
 ---------------------
 Symbolic Z-matrix:
 Charge =  0 Multiplicity = 1

                         Standard orientation:
 ---------------------------------------------------------------------
 Center     Atomic      Atomic             Coordinates (Angstroms)
 Number     Number       Type             X           Y           Z
 ---------------------------------------------------------------------
      1          6           0       -1.391500    0.000000   -2.800000
      2          1           0       -2.471500    0.000000   -2.800000
      3          6           0       -0.695750    1.205074   -2.800000
      4          1           0       -1.235750    2.140382   -2.800000
      5          6           0       -0.695750   -1.205074   -2.800000
      6          1           0       -1.235750   -2.140382   -2.800000
      7          6           0        0.695750    1.205074   -2.800000
      8          1           0        1.235750    2.140382   -2.800000
      9          6           0        0.695750   -1.205074   -2.800000
     10          1           0        1.235750   -2.140382   -2.800000
     11          6           0        1.391500    0.000000   -2.800000
     12          1           0        2.471500    0.000000   -2.800000
     13          6           0        0.000000    0.000000    1.408500
     14          6           0        0.000000   -1.205074    2.104250
     15          1           0        0.000000   -2.140382    1.564250
     16          1           0        0.000000    0.000000    0.328500
     17          6           0        0.000000   -1.205074    3.495750
     18          1           0        0.000000   -2.140382    4.035750
     19          6           0        0.000000    0.000000    4.191500
     20          1           0        0.000000    0.000000    5.271500
     21          6           0        0.000000    1.205074    3.495750
     22          1           0        0.000000    2.140382    4.035750
     23          6           0        0.000000    1.205074    2.104250
     24          1           0        0.000000    2.140382    1.564250
 ---------------------------------------------------------------------

 SCF Done:  E(RB3LYP) =  -464.741159578     A.U. after   19 cycles

 The electronic state is 1-A1.
 Alpha  occ. eigenvalues --  -10.17973 -10.17948 -10.17940 -10.17887 -10.17879
 Alpha  occ. eigenvalues --  -10.17853 -10.17246 -10.17211 -10.17169 -10.17120
 Alpha  occ. eigenvalues --  -10.17112 -10.16958  -0.86149  -0.85362  -0.75286
 Alpha  occ. eigenvalues --   -0.75271  -0.74532  -0.74476  -0.60966  -0.60962
 Alpha  occ. eigenvalues --   -0.60218  -0.60183  -0.53187  -0.52428  -0.46788
 Alpha  occ. eigenvalues --   -0.46044  -0.45445  -0.44674  -0.42924  -0.42904
 Alpha  occ. eigenvalues --   -0.42201  -0.42131  -0.37661  -0.36873  -0.35179
 Alpha  occ. eigenvalues --   -0.35166  -0.34450  -0.34322  -0.26293  -0.26290
 Alpha  occ. eigenvalues --   -0.25521  -0.25433
 Alpha virt. eigenvalues --   -0.01830  -0.01803  -0.01017  -0.01012   0.01893
 Alpha virt. eigenvalues --    0.03582   0.04266   0.05251   0.06211   0.06330
 Alpha virt. eigenvalues --    0.07973   0.08009   0.08885   0.08940   0.10940

 Mulliken charges:
               1
     1  C   -0.110686
     2  H    0.114365
     3  C   -0.119087
     4  H    0.117708
     5  C   -0.119087
     6  H    0.117708
     7  C   -0.119087
     8  H    0.117708
     9  C   -0.119087
    10  H    0.117708
    11  C   -0.110686
    12  H    0.114365
    13  C   -0.066344
    14  C   -0.139959
    15  H    0.116416
    16  H    0.114691
    17  C   -0.117345
    18  H    0.114025
    19  C   -0.110884
    20  H    0.114416
    21  C   -0.117345
    22  H    0.114025
    23  C   -0.139959
    24  H    0.116416
 Sum of Mulliken charges =   0.00000

 Dipole moment (field-independent basis, Debye):
    X=              0.0000    Y=              0.0000    Z=             -0.3240  Tot=              0.3240
 Quadrupole moment (field-independent basis, Debye-Ang):
   XX=            -71.7655   YY=            -64.6010   ZZ=            -72.3961
   XY=              0.0000   XZ=              0.0000   YZ=              0.0000

 Normal termination of Gaussian 09 at Sun Mar 19 02:03:20 2017.
