 Gaussian 09, Revision D.01,
 Gaussian 09:  EM64L-G09RevD.01 24-Apr-2013

 ------------------------------------------
 #p b3lyp empiricaldispersion=gd3bj cc-pVTZ
 ------------------------------------------

 ---------------------
 benzene dimer 5.40425
 ---------------------
 Symbolic Z-matrix:
 Charge =  0 Multiplicity = 1

                         Standard orientation:
 ---------------------------------------------------------------------
 Center     Atomic      Atomic             Coordinates (Angstroms)
 Number     Number       Type             X           Y           Z
 ---------------------------------------------------------------------
      1          6           0       -1.391500    0.000000   -3.950000
      2          1           0       -2.471500    0.000000   -3.950000
      3          6           0       -0.695750    1.205074   -3.950000
      4          1           0       -1.235750    2.140382   -3.950000
      5          6           0       -0.695750   -1.205074   -3.950000
      6          1           0       -1.235750   -2.140382   -3.950000
      7          6           0        0.695750    1.205074   -3.950000
      8          1           0        1.235750    2.140382   -3.950000
      9          6           0        0.695750   -1.205074   -3.950000
     10          1           0        1.235750   -2.140382   -3.950000
     11          6           0        1.391500    0.000000   -3.950000
     12          1           0        2.471500    0.000000   -3.950000
     13          6           0        0.000000    0.000000    2.558500
     14          6           0        0.000000   -1.205074    3.254250
     15          1           0        0.000000   -2.140382    2.714250
     16          1           0        0.000000    0.000000    1.478500
     17          6           0        0.000000   -1.205074    4.645750
     18          1           0        0.000000   -2.140382    5.185750
     19          6           0        0.000000    0.000000    5.341500
     20          1           0        0.000000    0.000000    6.421500
     21          6           0        0.000000    1.205074    4.645750
     22          1           0        0.000000    2.140382    5.185750
     23          6           0        0.000000    1.205074    3.254250
     24          1           0        0.000000    2.140382    2.714250
 ---------------------------------------------------------------------

 SCF Done:  E(RB3LYP) =  -464.704983996     A.U. after   11 cycles

 The electronic state is 1-A1.
 Alpha  occ. eigenvalues --  -10.17937 -10.17912 -10.17910 -10.17852 -10.17851
 Alpha  occ. eigenvalues --  -10.17825 -10.17689 -10.17661 -10.17646 -10.17598
 Alpha  occ. eigenvalues --  -10.17598 -10.17555  -0.85838  -0.85581  -0.74990
 Alpha  occ. eigenvalues --   -0.74988  -0.74739  -0.74727  -0.60682  -0.60681
 Alpha  occ. eigenvalues --   -0.60430  -0.60422  -0.52884  -0.52629  -0.46525
 Alpha  occ. eigenvalues --   -0.46271  -0.45125  -0.44869  -0.42616  -0.42612
 Alpha  occ. eigenvalues --   -0.42370  -0.42346  -0.37297  -0.37039  -0.34876
 Alpha  occ. eigenvalues --   -0.34873  -0.34629  -0.34610  -0.25913  -0.25910
 Alpha  occ. eigenvalues --   -0.25662  -0.25649
 Alpha virt. eigenvalues --   -0.01313  -0.01312  -0.01063  -0.01052   0.03840
 Alpha virt. eigenvalues --    0.04220   0.07016   0.07048   0.07249   0.07364
 Alpha virt. eigenvalues --    0.10129   0.10134   0.10349   0.10423   0.12728

 Mulliken charges:
               1
     1  C   -0.106088
     2  H    0.106297
     3  C   -0.106117
     4  H    0.106056
     5  C   -0.106117
     6  H    0.106056
     7  C   -0.106117
     8  H    0.106056
     9  C   -0.106117
    10  H    0.106056
    11  C   -0.106088
    12  H    0.106297
    13  C   -0.110506
    14  C   -0.106345
    15  H    0.105681
    16  H    0.114396
    17  C   -0.105616
    18  H    0.104851
    19  C   -0.106163
    20  H    0.104956
    21  C   -0.105616
    22  H    0.104851
    23  C   -0.106345
    24  H    0.105681
 Sum of Mulliken charges =   0.00000

 Dipole moment (field-independent basis, Debye):
    X=              0.0000    Y=              0.0000    Z=             -0.0801  Tot=              0.0801
 Quadrupole moment (field-independent basis, Debye-Ang):
   XX=            -71.6374   YY=            -64.2529   ZZ=            -71.9391
   XY=              0.0000   XZ=              0.0000   YZ=              0.0000

 Normal termination of Gaussian 09 at Sun Mar 19 00:25:17 2017.
