 Gaussian 09, Revision D.01,
 Gaussian 09:  EM64L-G09RevD.01 24-Apr-2013

 ----------------------------------------------
 #p b3lyp empiricaldispersion=gd3bj jun-cc-pVTZ
 ----------------------------------------------

 ---------------------
 benzene dimer 3.00425
 ---------------------
 Symbolic Z-matrix:
 Charge =  0 Multiplicity = 1

                         Standard orientation:
 ---------------------------------------------------------------------
 Center     Atomic      Atomic             Coordinates (Angstroms)
 Number     Number       Type             X           Y           Z
 ---------------------------------------------------------------------
      1          6           0       -1.391500    0.000000   -2.750000
      2          1           0       -2.471500    0.000000   -2.750000
      3          6           0       -0.695750    1.205074   -2.750000
      4          1           0       -1.235750    2.140382   -2.750000
      5          6           0       -0.695750   -1.205074   -2.750000
      6          1           0       -1.235750   -2.140382   -2.750000
      7          6           0        0.695750    1.205074   -2.750000
      8          1           0        1.235750    2.140382   -2.750000
      9          6           0        0.695750   -1.205074   -2.750000
     10          1           0        1.235750   -2.140382   -2.750000
     11          6           0        1.391500    0.000000   -2.750000
     12          1           0        2.471500    0.000000   -2.750000
     13          6           0        0.000000    0.000000    1.358500
     14          6           0        0.000000   -1.205074    2.054250
     15          1           0        0.000000   -2.140382    1.514250
     16          1           0        0.000000    0.000000    0.278500
     17          6           0        0.000000   -1.205074    3.445750
     18          1           0        0.000000   -2.140382    3.985750
     19          6           0        0.000000    0.000000    4.141500
     20          1           0        0.000000    0.000000    5.221500
     21          6           0        0.000000    1.205074    3.445750
     22          1           0        0.000000    2.140382    3.985750
     23          6           0        0.000000    1.205074    2.054250
     24          1           0        0.000000    2.140382    1.514250
 ---------------------------------------------------------------------

 SCF Done:  E(RB3LYP) =  -464.710395496     A.U. after   10 cycles

 The electronic state is 1-A1.
 Alpha  occ. eigenvalues --  -10.18372 -10.18348 -10.18341 -10.18289 -10.18280
 Alpha  occ. eigenvalues --  -10.18258 -10.17632 -10.17598 -10.17555 -10.17505
 Alpha  occ. eigenvalues --  -10.17497 -10.17333  -0.86293  -0.85483  -0.75416
 Alpha  occ. eigenvalues --   -0.75399  -0.74641  -0.74582  -0.61068  -0.61064
 Alpha  occ. eigenvalues --   -0.60299  -0.60264  -0.53258  -0.52478  -0.46855
 Alpha  occ. eigenvalues --   -0.46093  -0.45539  -0.44747  -0.43001  -0.42980
 Alpha  occ. eigenvalues --   -0.42259  -0.42198  -0.37747  -0.36937  -0.35250
 Alpha  occ. eigenvalues --   -0.35236  -0.34501  -0.34357  -0.26393  -0.26383
 Alpha  occ. eigenvalues --   -0.25590  -0.25488
 Alpha virt. eigenvalues --   -0.02129  -0.02059  -0.01248  -0.01226  -0.00759
 Alpha virt. eigenvalues --    0.00415   0.00672   0.01214   0.02151   0.02452
 Alpha virt. eigenvalues --    0.03335   0.03354   0.04436   0.04463   0.04562

 Mulliken charges:
               1
     1  C   -0.138889
     2  H    0.119373
     3  C   -0.116881
     4  H    0.118216
     5  C   -0.116881
     6  H    0.118216
     7  C   -0.116881
     8  H    0.118216
     9  C   -0.116881
    10  H    0.118216
    11  C   -0.138889
    12  H    0.119373
    13  C    0.012195
    14  C   -0.148896
    15  H    0.115115
    16  H    0.115687
    17  C   -0.128020
    18  H    0.116871
    19  C   -0.112465
    20  H    0.108135
    21  C   -0.128020
    22  H    0.116871
    23  C   -0.148896
    24  H    0.115115
 Sum of Mulliken charges =   0.00000

 Dipole moment (field-independent basis, Debye):
    X=              0.0000    Y=              0.0000    Z=             -0.3421  Tot=              0.3421
 Quadrupole moment (field-independent basis, Debye-Ang):
   XX=            -72.1033   YY=            -64.9390   ZZ=            -72.8347
   XY=              0.0000   XZ=              0.0000   YZ=              0.0000

 Normal termination of Gaussian 09 at Sun Mar 19 01:01:42 2017.
