 Gaussian 09, Revision D.01,
 Gaussian 09:  EM64L-G09RevD.01 24-Apr-2013

 ------------------------------------------------
 #p pbe1pbe empiricaldispersion=gd3bj may-cc-pVQZ
 ------------------------------------------------

 ----------------------------
 benzene dimer 2.495750000000
 ----------------------------
 Symbolic Z-matrix:
 Charge =  0 Multiplicity = 1

                         Standard orientation:
 ---------------------------------------------------------------------
 Center     Atomic      Atomic             Coordinates (Angstroms)
 Number     Number       Type             X           Y           Z
 ---------------------------------------------------------------------
      1          6           0       -1.391500    0.000000   -2.495750
      2          1           0       -2.471500    0.000000   -2.495750
      3          6           0       -0.695750    1.205074   -2.495750
      4          1           0       -1.235750    2.140382   -2.495750
      5          6           0       -0.695750   -1.205074   -2.495750
      6          1           0       -1.235750   -2.140382   -2.495750
      7          6           0        0.695750    1.205074   -2.495750
      8          1           0        1.235750    2.140382   -2.495750
      9          6           0        0.695750   -1.205074   -2.495750
     10          1           0        1.235750   -2.140382   -2.495750
     11          6           0        1.391500    0.000000   -2.495750
     12          1           0        2.471500    0.000000   -2.495750
     13          6           0        0.000000    0.000000    1.104250
     14          6           0        0.000000   -1.205074    1.800000
     15          1           0        0.000000   -2.140382    1.260000
     16          1           0        0.000000    0.000000    0.024250
     17          6           0        0.000000   -1.205074    3.191500
     18          1           0        0.000000   -2.140382    3.731500
     19          6           0        0.000000    0.000000    3.887250
     20          1           0        0.000000    0.000000    4.967250
     21          6           0        0.000000    1.205074    3.191500
     22          1           0        0.000000    2.140382    3.731500
     23          6           0        0.000000    1.205074    1.800000
     24          1           0        0.000000    2.140382    1.260000
 ---------------------------------------------------------------------

 SCF Done:  E(RPBE1PBE) =  -464.136709491     A.U. after   10 cycles

 The electronic state is 1-A1.
 Alpha  occ. eigenvalues --  -10.23325 -10.23299 -10.23289 -10.23235 -10.23223
 Alpha  occ. eigenvalues --  -10.23197 -10.22238 -10.22201 -10.22150 -10.22066
 Alpha  occ. eigenvalues --  -10.22060 -10.21774  -0.88827  -0.87605  -0.77615
 Alpha  occ. eigenvalues --   -0.77588  -0.76472  -0.76379  -0.62820  -0.62815
 Alpha  occ. eigenvalues --   -0.61695  -0.61648  -0.54776  -0.53643  -0.48128
 Alpha  occ. eigenvalues --   -0.47057  -0.46819  -0.45654  -0.44095  -0.44063
 Alpha  occ. eigenvalues --   -0.43097  -0.43009  -0.39021  -0.37970  -0.36106
 Alpha  occ. eigenvalues --   -0.36084  -0.35011  -0.34678  -0.27484  -0.27417
 Alpha  occ. eigenvalues --   -0.26233  -0.26017
 Alpha virt. eigenvalues --   -0.01663  -0.01526  -0.00311  -0.00266  -0.00220
 Alpha virt. eigenvalues --    0.01084   0.01142   0.01692   0.02772   0.02965
 Alpha virt. eigenvalues --    0.03574   0.03703   0.04548   0.04790   0.05093

 Mulliken charges:
               1
     1  C   -0.196696
     2  H    0.176772
     3  C   -0.157103
     4  H    0.171952
     5  C   -0.157103
     6  H    0.171952
     7  C   -0.157103
     8  H    0.171952
     9  C   -0.157103
    10  H    0.171952
    11  C   -0.196696
    12  H    0.176772
    13  C   -0.370804
    14  C   -0.097953
    15  H    0.207351
    16  H    0.148797
    17  C   -0.173073
    18  H    0.183400
    19  C   -0.213777
    20  H    0.176786
    21  C   -0.173073
    22  H    0.183400
    23  C   -0.097953
    24  H    0.207351
 Sum of Mulliken charges =   0.00000

 Dipole moment (field-independent basis, Debye):
    X=              0.0000    Y=              0.0000    Z=             -0.5213  Tot=              0.5213
 Quadrupole moment (field-independent basis, Debye-Ang):
   XX=            -71.2108   YY=            -63.7789   ZZ=            -72.1891
   XY=              0.0000   XZ=              0.0000   YZ=              0.0000

 Normal termination of Gaussian 09 at Sun Mar 19 03:51:05 2017.
