 Gaussian 09, Revision D.01,
 Gaussian 09:  EM64L-G09RevD.01 24-Apr-2013

 --------------------
 #p m062x may-cc-pVQZ
 --------------------

 ---------------------
 benzene dimer 3.40425
 ---------------------
 Symbolic Z-matrix:
 Charge =  0 Multiplicity = 1

                         Standard orientation:
 ---------------------------------------------------------------------
 Center     Atomic      Atomic             Coordinates (Angstroms)
 Number     Number       Type             X           Y           Z
 ---------------------------------------------------------------------
      1          6           0       -1.391500    0.000000   -2.950000
      2          1           0       -2.471500    0.000000   -2.950000
      3          6           0       -0.695750    1.205074   -2.950000
      4          1           0       -1.235750    2.140382   -2.950000
      5          6           0       -0.695750   -1.205074   -2.950000
      6          1           0       -1.235750   -2.140382   -2.950000
      7          6           0        0.695750    1.205074   -2.950000
      8          1           0        1.235750    2.140382   -2.950000
      9          6           0        0.695750   -1.205074   -2.950000
     10          1           0        1.235750   -2.140382   -2.950000
     11          6           0        1.391500    0.000000   -2.950000
     12          1           0        2.471500    0.000000   -2.950000
     13          6           0        0.000000    0.000000    1.558500
     14          6           0        0.000000   -1.205074    2.254250
     15          1           0        0.000000   -2.140382    1.714250
     16          1           0        0.000000    0.000000    0.478500
     17          6           0        0.000000   -1.205074    3.645750
     18          1           0        0.000000   -2.140382    4.185750
     19          6           0        0.000000    0.000000    4.341500
     20          1           0        0.000000    0.000000    5.421500
     21          6           0        0.000000    1.205074    3.645750
     22          1           0        0.000000    2.140382    4.185750
     23          6           0        0.000000    1.205074    2.254250
     24          1           0        0.000000    2.140382    1.714250
 ---------------------------------------------------------------------

 SCF Done:  E(RM062X) =  -464.476744665     A.U. after   10 cycles

 The electronic state is 1-A1.
 Alpha  occ. eigenvalues --  -10.54599 -10.54565 -10.54558 -10.54481 -10.54474
 Alpha  occ. eigenvalues --  -10.54438 -10.53946 -10.53902 -10.53854 -10.53802
 Alpha  occ. eigenvalues --  -10.53796 -10.53663  -0.96363  -0.95667  -0.84682
 Alpha  occ. eigenvalues --   -0.84670  -0.84012  -0.83963  -0.68992  -0.68988
 Alpha  occ. eigenvalues --   -0.68323  -0.68292  -0.60516  -0.59836  -0.53780
 Alpha  occ. eigenvalues --   -0.53110  -0.51678  -0.50991  -0.49239  -0.49221
 Alpha  occ. eigenvalues --   -0.48593  -0.48518  -0.44424  -0.43727  -0.40647
 Alpha  occ. eigenvalues --   -0.40636  -0.39993  -0.39910  -0.31279  -0.31272
 Alpha  occ. eigenvalues --   -0.30598  -0.30533
 Alpha virt. eigenvalues --   -0.00303   0.00574   0.00757   0.01115   0.01293
 Alpha virt. eigenvalues --    0.01392   0.02063   0.02116   0.02138   0.02190
 Alpha virt. eigenvalues --    0.02997   0.03077   0.03795   0.03925   0.04042

 Mulliken charges:
               1
     1  C   -0.477819
     2  H    0.464079
     3  C   -0.461220
     4  H    0.464113
     5  C   -0.461220
     6  H    0.464113
     7  C   -0.461220
     8  H    0.464113
     9  C   -0.461220
    10  H    0.464113
    11  C   -0.477819
    12  H    0.464079
    13  C   -0.491734
    14  C   -0.448449
    15  H    0.458023
    16  H    0.432175
    17  C   -0.417737
    18  H    0.450295
    19  C   -0.439430
    20  H    0.430629
    21  C   -0.417737
    22  H    0.450295
    23  C   -0.448449
    24  H    0.458023
 Sum of Mulliken charges =   0.00000

 Dipole moment (field-independent basis, Debye):
    X=              0.0000    Y=              0.0000    Z=             -0.2852  Tot=              0.2852
 Quadrupole moment (field-independent basis, Debye-Ang):
   XX=            -71.8669   YY=            -64.1377   ZZ=            -72.3610
   XY=              0.0000   XZ=              0.0000   YZ=              0.0000

 Normal termination of Gaussian 09 at Sun Mar 19 02:37:14 2017.
