 Gaussian 09, Revision D.01,
 Gaussian 09:  EM64L-G09RevD.01 24-Apr-2013

 -------------
 #p mp2 6-31g*
 -------------

 ---------------
 benzene monomer
 ---------------
 Symbolic Z-matrix:
 Charge =  0 Multiplicity = 1

                         Standard orientation:
 ---------------------------------------------------------------------
 Center     Atomic      Atomic             Coordinates (Angstroms)
 Number     Number       Type             X           Y           Z
 ---------------------------------------------------------------------
      1          6           0        0.000000    1.391500    0.000000
      2          1           0        0.000000    2.471500    0.000000
      3          6           0        1.205074    0.695750    0.000000
      4          1           0        2.140382    1.235750    0.000000
      5          6           0       -1.205074    0.695750    0.000000
      6          1           0       -2.140382    1.235750    0.000000
      7          6           0        1.205074   -0.695750    0.000000
      8          1           0        2.140382   -1.235750    0.000000
      9          6           0       -1.205074   -0.695750    0.000000
     10          1           0       -2.140382   -1.235750    0.000000
     11          6           0        0.000000   -1.391500    0.000000
     12          1           0        0.000000   -2.471500    0.000000
 ---------------------------------------------------------------------

 SCF Done:  E(RHF) =  -230.702873771     A.U. after    9 cycles
 E2 =    -0.7544741010D+00 EUMP2 =    -0.23145734787184D+03

 The electronic state is 1-A1G.
 Alpha  occ. eigenvalues --  -11.23173 -11.23116 -11.23116 -11.22994 -11.22994
 Alpha  occ. eigenvalues --  -11.22936  -1.14479  -1.00931  -1.00931  -0.81849
 Alpha  occ. eigenvalues --   -0.81849  -0.70455  -0.63954  -0.61203  -0.58290
 Alpha  occ. eigenvalues --   -0.58290  -0.49590  -0.48912  -0.48912  -0.32981
 Alpha  occ. eigenvalues --   -0.32981
 Alpha virt. eigenvalues --    0.14829   0.14829   0.23487   0.29369   0.29369
 Alpha virt. eigenvalues --    0.33225   0.33225   0.33684   0.36839   0.47310
 Alpha virt. eigenvalues --    0.47310   0.49846   0.49846   0.65883   0.73931

 Mulliken charges:
               1
     1  C   -0.199811
     2  H    0.199811
     3  C   -0.199811
     4  H    0.199811
     5  C   -0.199811
     6  H    0.199811
     7  C   -0.199811
     8  H    0.199811
     9  C   -0.199811
    10  H    0.199811
    11  C   -0.199811
    12  H    0.199811
 Sum of Mulliken charges =   0.00000

 Dipole moment (field-independent basis, Debye):
    X=              0.0000    Y=              0.0000    Z=              0.0000  Tot=              0.0000
 Quadrupole moment (field-independent basis, Debye-Ang):
   XX=            -31.3698   YY=            -31.3698   ZZ=            -39.8453
   XY=              0.0000   XZ=              0.0000   YZ=              0.0000

 Normal termination of Gaussian 09 at Sun Mar 19 09:20:59 2017.
