 Gaussian 09, Revision D.01,
 Gaussian 09:  EM64L-G09RevD.01 24-Apr-2013

 ---------------
 #p m062x 6-31g*
 ---------------

 ---------------------
 benzene dimer 2.50425
 ---------------------
 Symbolic Z-matrix:
 Charge =  0 Multiplicity = 1

                         Standard orientation:
 ---------------------------------------------------------------------
 Center     Atomic      Atomic             Coordinates (Angstroms)
 Number     Number       Type             X           Y           Z
 ---------------------------------------------------------------------
      1          6           0       -1.391500    0.000000   -2.500000
      2          1           0       -2.471500    0.000000   -2.500000
      3          6           0       -0.695750    1.205074   -2.500000
      4          1           0       -1.235750    2.140382   -2.500000
      5          6           0       -0.695750   -1.205074   -2.500000
      6          1           0       -1.235750   -2.140382   -2.500000
      7          6           0        0.695750    1.205074   -2.500000
      8          1           0        1.235750    2.140382   -2.500000
      9          6           0        0.695750   -1.205074   -2.500000
     10          1           0        1.235750   -2.140382   -2.500000
     11          6           0        1.391500    0.000000   -2.500000
     12          1           0        2.471500    0.000000   -2.500000
     13          6           0        0.000000    0.000000    1.108500
     14          6           0        0.000000   -1.205074    1.804250
     15          1           0        0.000000   -2.140382    1.264250
     16          1           0        0.000000    0.000000    0.028500
     17          6           0        0.000000   -1.205074    3.195750
     18          1           0        0.000000   -2.140382    3.735750
     19          6           0        0.000000    0.000000    3.891500
     20          1           0        0.000000    0.000000    4.971500
     21          6           0        0.000000    1.205074    3.195750
     22          1           0        0.000000    2.140382    3.735750
     23          6           0        0.000000    1.205074    1.804250
     24          1           0        0.000000    2.140382    1.264250
 ---------------------------------------------------------------------

 SCF Done:  E(RM062X) =  -464.276788374     A.U. after   14 cycles

 The electronic state is 1-A1.
 Alpha  occ. eigenvalues --  -10.55181 -10.55151 -10.55135 -10.55072 -10.55055
 Alpha  occ. eigenvalues --  -10.55025 -10.54018 -10.53970 -10.53914 -10.53824
 Alpha  occ. eigenvalues --  -10.53817 -10.53485  -0.95818  -0.94522  -0.84179
 Alpha  occ. eigenvalues --   -0.84150  -0.82969  -0.82861  -0.68504  -0.68499
 Alpha  occ. eigenvalues --   -0.67312  -0.67253  -0.60065  -0.58862  -0.53478
 Alpha  occ. eigenvalues --   -0.52336  -0.50916  -0.49673  -0.48805  -0.48769
 Alpha  occ. eigenvalues --   -0.47753  -0.47660  -0.43457  -0.42373  -0.40171
 Alpha  occ. eigenvalues --   -0.40152  -0.39010  -0.38654  -0.30557  -0.30521
 Alpha  occ. eigenvalues --   -0.29264  -0.29063
 Alpha virt. eigenvalues --    0.03440   0.03470   0.04752   0.04788   0.13320
 Alpha virt. eigenvalues --    0.14556   0.18827   0.19250   0.20209   0.20279
 Alpha virt. eigenvalues --    0.21370   0.22618   0.22801   0.22821   0.23540

 Mulliken charges:
               1
     1  C   -0.160778
     2  H    0.167167
     3  C   -0.165233
     4  H    0.165671
     5  C   -0.165233
     6  H    0.165671
     7  C   -0.165233
     8  H    0.165671
     9  C   -0.165233
    10  H    0.165671
    11  C   -0.160778
    12  H    0.167167
    13  C   -0.142200
    14  C   -0.165639
    15  H    0.154295
    16  H    0.167212
    17  C   -0.163663
    18  H    0.157694
    19  C   -0.162994
    20  H    0.158076
    21  C   -0.163663
    22  H    0.157694
    23  C   -0.165639
    24  H    0.154295
 Sum of Mulliken charges =   0.00000

 Dipole moment (field-independent basis, Debye):
    X=              0.0000    Y=              0.0000    Z=             -0.5255  Tot=              0.5255
 Quadrupole moment (field-independent basis, Debye-Ang):
   XX=            -69.8632   YY=            -62.5441   ZZ=            -70.5737
   XY=              0.0000   XZ=              0.0000   YZ=              0.0000

 Normal termination of Gaussian 09 at Sun Mar 19 00:46:44 2017.
