 Gaussian 09, Revision D.01,
 Gaussian 09:  EM64L-G09RevD.01 24-Apr-2013

 ----------------------------------------------
 #p b3lyp empiricaldispersion=gd3bj may-cc-pVQZ
 ----------------------------------------------

 ---------------------
 benzene dimer 2.90425
 ---------------------
 Symbolic Z-matrix:
 Charge =  0 Multiplicity = 1

                         Standard orientation:
 ---------------------------------------------------------------------
 Center     Atomic      Atomic             Coordinates (Angstroms)
 Number     Number       Type             X           Y           Z
 ---------------------------------------------------------------------
      1          6           0       -1.391500    0.000000   -2.700000
      2          1           0       -2.471500    0.000000   -2.700000
      3          6           0       -0.695750    1.205074   -2.700000
      4          1           0       -1.235750    2.140382   -2.700000
      5          6           0       -0.695750   -1.205074   -2.700000
      6          1           0       -1.235750   -2.140382   -2.700000
      7          6           0        0.695750    1.205074   -2.700000
      8          1           0        1.235750    2.140382   -2.700000
      9          6           0        0.695750   -1.205074   -2.700000
     10          1           0        1.235750   -2.140382   -2.700000
     11          6           0        1.391500    0.000000   -2.700000
     12          1           0        2.471500    0.000000   -2.700000
     13          6           0        0.000000    0.000000    1.308500
     14          6           0        0.000000   -1.205074    2.004250
     15          1           0        0.000000   -2.140382    1.464250
     16          1           0        0.000000    0.000000    0.228500
     17          6           0        0.000000   -1.205074    3.395750
     18          1           0        0.000000   -2.140382    3.935750
     19          6           0        0.000000    0.000000    4.091500
     20          1           0        0.000000    0.000000    5.171500
     21          6           0        0.000000    1.205074    3.395750
     22          1           0        0.000000    2.140382    3.935750
     23          6           0        0.000000    1.205074    2.004250
     24          1           0        0.000000    2.140382    1.464250
 ---------------------------------------------------------------------

 SCF Done:  E(RB3LYP) =  -464.742614499     A.U. after    9 cycles

 The electronic state is 1-A1.
 Alpha  occ. eigenvalues --  -10.18095 -10.18070 -10.18062 -10.18008 -10.18000
 Alpha  occ. eigenvalues --  -10.17975 -10.17304 -10.17269 -10.17224 -10.17169
 Alpha  occ. eigenvalues --  -10.17163 -10.16982  -0.86277  -0.85411  -0.75403
 Alpha  occ. eigenvalues --   -0.75385  -0.74578  -0.74514  -0.61072  -0.61068
 Alpha  occ. eigenvalues --   -0.60254  -0.60217  -0.53290  -0.52462  -0.46877
 Alpha  occ. eigenvalues --   -0.46070  -0.45560  -0.44717  -0.43029  -0.43007
 Alpha  occ. eigenvalues --   -0.42239  -0.42189  -0.37774  -0.36920  -0.35281
 Alpha  occ. eigenvalues --   -0.35266  -0.34484  -0.34316  -0.26438  -0.26420
 Alpha  occ. eigenvalues --   -0.25574  -0.25457
 Alpha virt. eigenvalues --   -0.02176  -0.02098  -0.01231  -0.01205  -0.01032
 Alpha virt. eigenvalues --    0.00127   0.00387   0.00897   0.01823   0.02127
 Alpha virt. eigenvalues --    0.02891   0.02969   0.03759   0.03907   0.04168

 Mulliken charges:
               1
     1  C   -0.174413
     2  H    0.154223
     3  C   -0.145177
     4  H    0.154583
     5  C   -0.145177
     6  H    0.154583
     7  C   -0.145177
     8  H    0.154583
     9  C   -0.145177
    10  H    0.154583
    11  C   -0.174413
    12  H    0.154223
    13  C   -0.132482
    14  C   -0.140822
    15  H    0.174309
    16  H    0.102102
    17  C   -0.155038
    18  H    0.157497
    19  C   -0.193688
    20  H    0.154933
    21  C   -0.155038
    22  H    0.157497
    23  C   -0.140822
    24  H    0.174309
 Sum of Mulliken charges =   0.00000

 Dipole moment (field-independent basis, Debye):
    X=              0.0000    Y=              0.0000    Z=             -0.3668  Tot=              0.3668
 Quadrupole moment (field-independent basis, Debye-Ang):
   XX=            -72.0285   YY=            -64.9221   ZZ=            -72.8120
   XY=              0.0000   XZ=              0.0000   YZ=              0.0000

 1\1\GINC-HOLY2A14108\SP\RB3LYP\May-CC-pVQZ\C12H12\ROOT\19-Mar-2017\0\\
 #p b3lyp empiricaldispersion=gd3bj may-cc-pVQZ\\benzene dimer 2.90425\
 \0,1\C,0,1.3915,0.,2.90425\H,0,2.4715,0.,2.90425\C,0,0.69575,1.2050743
 494,2.90425\H,0,1.23575,2.1403817855,2.90425\C,0,0.69575,-1.2050743494
 ,2.90425\H,0,1.23575,-2.1403817855,2.90425\C,0,-0.69575,1.2050743494,2
 .90425\H,0,-1.23575,2.1403817855,2.90425\C,0,-0.69575,-1.2050743494,2.
 90425\H,0,-1.23575,-2.1403817855,2.90425\C,0,-1.3915,0.,2.90425\H,0,-2
 .4715,0.,2.90425\C,0,0.,0.,-1.10425\C,0,0.,-1.2050743494,-1.8\H,0,0.,-

 Normal termination of Gaussian 09 at Sun Mar 19 03:12:19 2017.
