 Gaussian 09, Revision D.01,
 Gaussian 09:  EM64L-G09RevD.01 24-Apr-2013

 ------------
 #p hf 6-31g*
 ------------

 ---------------------
 benzene dimer 2.40425
 ---------------------
 Symbolic Z-matrix:
 Charge =  0 Multiplicity = 1

                         Standard orientation:
 ---------------------------------------------------------------------
 Center     Atomic      Atomic             Coordinates (Angstroms)
 Number     Number       Type             X           Y           Z
 ---------------------------------------------------------------------
      1          6           0       -1.391500    0.000000   -2.450000
      2          1           0       -2.471500    0.000000   -2.450000
      3          6           0       -0.695750    1.205074   -2.450000
      4          1           0       -1.235750    2.140382   -2.450000
      5          6           0       -0.695750   -1.205074   -2.450000
      6          1           0       -1.235750   -2.140382   -2.450000
      7          6           0        0.695750    1.205074   -2.450000
      8          1           0        1.235750    2.140382   -2.450000
      9          6           0        0.695750   -1.205074   -2.450000
     10          1           0        1.235750   -2.140382   -2.450000
     11          6           0        1.391500    0.000000   -2.450000
     12          1           0        2.471500    0.000000   -2.450000
     13          6           0        0.000000    0.000000    1.058500
     14          6           0        0.000000   -1.205074    1.754250
     15          1           0        0.000000   -2.140382    1.214250
     16          1           0        0.000000    0.000000   -0.021500
     17          6           0        0.000000   -1.205074    3.145750
     18          1           0        0.000000   -2.140382    3.685750
     19          6           0        0.000000    0.000000    3.841500
     20          1           0        0.000000    0.000000    4.921500
     21          6           0        0.000000    1.205074    3.145750
     22          1           0        0.000000    2.140382    3.685750
     23          6           0        0.000000    1.205074    1.754250
     24          1           0        0.000000    2.140382    1.214250
 ---------------------------------------------------------------------

 SCF Done:  E(RHF) =  -461.404789126     A.U. after   12 cycles

 The electronic state is 1-A1.
 Alpha  occ. eigenvalues --  -11.23726 -11.23677 -11.23659 -11.23555 -11.23536
 Alpha  occ. eigenvalues --  -11.23486 -11.22379 -11.22323 -11.22207 -11.22087
 Alpha  occ. eigenvalues --  -11.22074 -11.21665  -1.15148  -1.13590  -1.01537
 Alpha  occ. eigenvalues --   -1.01500  -1.00099  -0.99981  -0.82390  -0.82386
 Alpha  occ. eigenvalues --   -0.80981  -0.80939  -0.71020  -0.69605  -0.64433
 Alpha  occ. eigenvalues --   -0.63110  -0.61763  -0.60298  -0.58850  -0.58811
 Alpha  occ. eigenvalues --   -0.57565  -0.57486  -0.50424  -0.49442  -0.49418
 Alpha  occ. eigenvalues --   -0.48740  -0.48071  -0.47260  -0.33756  -0.33669
 Alpha  occ. eigenvalues --   -0.32213  -0.31859
 Alpha virt. eigenvalues --    0.14121   0.14176   0.15701   0.15751   0.22938
 Alpha virt. eigenvalues --    0.24662   0.28496   0.29044   0.30270   0.30811
 Alpha virt. eigenvalues --    0.32840   0.32971   0.33356   0.33843   0.34048

 Mulliken charges:
               1
     1  C   -0.199363
     2  H    0.205274
     3  C   -0.204581
     4  H    0.203795
     5  C   -0.204581
     6  H    0.203795
     7  C   -0.204581
     8  H    0.203795
     9  C   -0.204581
    10  H    0.203795
    11  C   -0.199363
    12  H    0.205274
    13  C   -0.204395
    14  C   -0.210087
    15  H    0.193821
    16  H    0.244640
    17  C   -0.199050
    18  H    0.194837
    19  C   -0.203148
    20  H    0.195186
    21  C   -0.199050
    22  H    0.194837
    23  C   -0.210087
    24  H    0.193821
 Sum of Mulliken charges =   0.00000

 Dipole moment (field-independent basis, Debye):
    X=              0.0000    Y=              0.0000    Z=             -0.6067  Tot=              0.6067
 Quadrupole moment (field-independent basis, Debye-Ang):
   XX=            -70.9052   YY=            -62.9805   ZZ=            -72.0180
   XY=              0.0000   XZ=              0.0000   YZ=              0.0000

 Normal termination of Gaussian 09 at Sun Mar 19 00:44:31 2017.
