 Gaussian 09, Revision D.01,
 Gaussian 09:  EM64L-G09RevD.01 24-Apr-2013

 ----------------------------------------------
 #p b3lyp empiricaldispersion=gd3bj jun-cc-pVTZ
 ----------------------------------------------

 ---------------------
 benzene dimer 2.50425
 ---------------------
 Symbolic Z-matrix:
 Charge =  0 Multiplicity = 1

                         Standard orientation:
 ---------------------------------------------------------------------
 Center     Atomic      Atomic             Coordinates (Angstroms)
 Number     Number       Type             X           Y           Z
 ---------------------------------------------------------------------
      1          6           0       -1.391500    0.000000   -2.500000
      2          1           0       -2.471500    0.000000   -2.500000
      3          6           0       -0.695750    1.205074   -2.500000
      4          1           0       -1.235750    2.140382   -2.500000
      5          6           0       -0.695750   -1.205074   -2.500000
      6          1           0       -1.235750   -2.140382   -2.500000
      7          6           0        0.695750    1.205074   -2.500000
      8          1           0        1.235750    2.140382   -2.500000
      9          6           0        0.695750   -1.205074   -2.500000
     10          1           0        1.235750   -2.140382   -2.500000
     11          6           0        1.391500    0.000000   -2.500000
     12          1           0        2.471500    0.000000   -2.500000
     13          6           0        0.000000    0.000000    1.108500
     14          6           0        0.000000   -1.205074    1.804250
     15          1           0        0.000000   -2.140382    1.264250
     16          1           0        0.000000    0.000000    0.028500
     17          6           0        0.000000   -1.205074    3.195750
     18          1           0        0.000000   -2.140382    3.735750
     19          6           0        0.000000    0.000000    3.891500
     20          1           0        0.000000    0.000000    4.971500
     21          6           0        0.000000    1.205074    3.195750
     22          1           0        0.000000    2.140382    3.735750
     23          6           0        0.000000    1.205074    1.804250
     24          1           0        0.000000    2.140382    1.264250
 ---------------------------------------------------------------------

 SCF Done:  E(RB3LYP) =  -464.711581849     A.U. after   10 cycles

 The electronic state is 1-A1.
 Alpha  occ. eigenvalues --  -10.18476 -10.18453 -10.18444 -10.18394 -10.18383
 Alpha  occ. eigenvalues --  -10.18362 -10.17470 -10.17438 -10.17390 -10.17307
 Alpha  occ. eigenvalues --  -10.17301 -10.17024  -0.86440  -0.85296  -0.75541
 Alpha  occ. eigenvalues --   -0.75515  -0.74470  -0.74385  -0.61175  -0.61170
 Alpha  occ. eigenvalues --   -0.60123  -0.60081  -0.53372  -0.52316  -0.46947
 Alpha  occ. eigenvalues --   -0.45948  -0.45649  -0.44560  -0.43115  -0.43084
 Alpha  occ. eigenvalues --   -0.42167  -0.42098  -0.37786  -0.36766  -0.35355
 Alpha  occ. eigenvalues --   -0.35335  -0.34330  -0.33993  -0.26614  -0.26540
 Alpha  occ. eigenvalues --   -0.25431  -0.25216
 Alpha virt. eigenvalues --   -0.02321  -0.02185  -0.01046  -0.00992  -0.00761
 Alpha virt. eigenvalues --    0.00484   0.00649   0.01209   0.02269   0.02567
 Alpha virt. eigenvalues --    0.03256   0.03325   0.04462   0.04525   0.04816

 Mulliken charges:
               1
     1  C   -0.140601
     2  H    0.122718
     3  C   -0.125599
     4  H    0.122672
     5  C   -0.125599
     6  H    0.122672
     7  C   -0.125599
     8  H    0.122672
     9  C   -0.125599
    10  H    0.122672
    11  C   -0.140601
    12  H    0.122718
    13  C    0.159018
    14  C   -0.190110
    15  H    0.116712
    16  H    0.084331
    17  C   -0.134486
    18  H    0.117798
    19  C   -0.117575
    20  H    0.101871
    21  C   -0.134486
    22  H    0.117798
    23  C   -0.190110
    24  H    0.116712
 Sum of Mulliken charges =   0.00000

 Dipole moment (field-independent basis, Debye):
    X=              0.0000    Y=              0.0000    Z=             -0.4912  Tot=              0.4912
 Quadrupole moment (field-independent basis, Debye-Ang):
   XX=            -71.9745   YY=            -64.9842   ZZ=            -73.0152
   XY=              0.0000   XZ=              0.0000   YZ=              0.0000

 1\1\GINC-HOLY2A14108\SP\RB3LYP\Jun-CC-pVTZ\C12H12\ROOT\19-Mar-2017\0\\
 #p b3lyp empiricaldispersion=gd3bj jun-cc-pVTZ\\benzene dimer 2.50425\
 \0,1\C,0,1.3915,0.,2.50425\H,0,2.4715,0.,2.50425\C,0,0.69575,1.2050743
 494,2.50425\H,0,1.23575,2.1403817855,2.50425\C,0,0.69575,-1.2050743494
 ,2.50425\H,0,1.23575,-2.1403817855,2.50425\C,0,-0.69575,1.2050743494,2
 .50425\H,0,-1.23575,2.1403817855,2.50425\C,0,-0.69575,-1.2050743494,2.
 50425\H,0,-1.23575,-2.1403817855,2.50425\C,0,-1.3915,0.,2.50425\H,0,-2
 .4715,0.,2.50425\C,0,0.,0.,-1.10425\C,0,0.,-1.2050743494,-1.8\H,0,0.,-

 Normal termination of Gaussian 09 at Sun Mar 19 00:59:00 2017.
