 Gaussian 09, Revision D.01,
 Gaussian 09:  EM64L-G09RevD.01 24-Apr-2013

 ------------------------------------------------
 #p pbe1pbe empiricaldispersion=gd3bj may-cc-pVQZ
 ------------------------------------------------

 ---------------------
 benzene dimer 2.90425
 ---------------------
 Symbolic Z-matrix:
 Charge =  0 Multiplicity = 1

                         Standard orientation:
 ---------------------------------------------------------------------
 Center     Atomic      Atomic             Coordinates (Angstroms)
 Number     Number       Type             X           Y           Z
 ---------------------------------------------------------------------
      1          6           0       -1.391500    0.000000   -2.700000
      2          1           0       -2.471500    0.000000   -2.700000
      3          6           0       -0.695750    1.205074   -2.700000
      4          1           0       -1.235750    2.140382   -2.700000
      5          6           0       -0.695750   -1.205074   -2.700000
      6          1           0       -1.235750   -2.140382   -2.700000
      7          6           0        0.695750    1.205074   -2.700000
      8          1           0        1.235750    2.140382   -2.700000
      9          6           0        0.695750   -1.205074   -2.700000
     10          1           0        1.235750   -2.140382   -2.700000
     11          6           0        1.391500    0.000000   -2.700000
     12          1           0        2.471500    0.000000   -2.700000
     13          6           0        0.000000    0.000000    1.308500
     14          6           0        0.000000   -1.205074    2.004250
     15          1           0        0.000000   -2.140382    1.464250
     16          1           0        0.000000    0.000000    0.228500
     17          6           0        0.000000   -1.205074    3.395750
     18          1           0        0.000000   -2.140382    3.935750
     19          6           0        0.000000    0.000000    4.091500
     20          1           0        0.000000    0.000000    5.171500
     21          6           0        0.000000    1.205074    3.395750
     22          1           0        0.000000    2.140382    3.935750
     23          6           0        0.000000    1.205074    2.004250
     24          1           0        0.000000    2.140382    1.464250
 ---------------------------------------------------------------------

 SCF Done:  E(RPBE1PBE) =  -464.135950807     A.U. after    9 cycles

 The electronic state is 1-A1.
 Alpha  occ. eigenvalues --  -10.23222 -10.23196 -10.23187 -10.23131 -10.23122
 Alpha  occ. eigenvalues --  -10.23095 -10.22380 -10.22342 -10.22296 -10.22239
 Alpha  occ. eigenvalues --  -10.22231 -10.22045  -0.88690  -0.87771  -0.77500
 Alpha  occ. eigenvalues --   -0.77481  -0.76624  -0.76556  -0.62721  -0.62716
 Alpha  occ. eigenvalues --   -0.61852  -0.61811  -0.54669  -0.53787  -0.48042
 Alpha  occ. eigenvalues --   -0.47184  -0.46716  -0.45820  -0.43990  -0.43966
 Alpha  occ. eigenvalues --   -0.43152  -0.43098  -0.39020  -0.38123  -0.36008
 Alpha  occ. eigenvalues --   -0.35992  -0.35162  -0.34996  -0.27285  -0.27273
 Alpha  occ. eigenvalues --   -0.26374  -0.26257
 Alpha virt. eigenvalues --   -0.01492  -0.01412  -0.00490  -0.00470  -0.00213
 Alpha virt. eigenvalues --    0.01019   0.01148   0.01692   0.02685   0.02882
 Alpha virt. eigenvalues --    0.03635   0.03721   0.04491   0.04709   0.04900

 Mulliken charges:
               1
     1  C   -0.191851
     2  H    0.175095
     3  C   -0.165214
     4  H    0.175224
     5  C   -0.165214
     6  H    0.175224
     7  C   -0.165214
     8  H    0.175224
     9  C   -0.165214
    10  H    0.175224
    11  C   -0.191851
    12  H    0.175095
    13  C   -0.260331
    14  C   -0.124632
    15  H    0.203336
    16  H    0.132263
    17  C   -0.181705
    18  H    0.182559
    19  C   -0.217095
    20  H    0.179520
    21  C   -0.181705
    22  H    0.182559
    23  C   -0.124632
    24  H    0.203336
 Sum of Mulliken charges =   0.00000

 Dipole moment (field-independent basis, Debye):
    X=              0.0000    Y=              0.0000    Z=             -0.3864  Tot=              0.3864
 Quadrupole moment (field-independent basis, Debye-Ang):
   XX=            -71.3265   YY=            -63.7413   ZZ=            -72.0498
   XY=              0.0000   XZ=              0.0000   YZ=              0.0000

 Normal termination of Gaussian 09 at Sun Mar 19 04:19:21 2017.
