 Gaussian 09, Revision D.01,
 Gaussian 09:  EM64L-G09RevD.01 24-Apr-2013

 ------------------------------------------------
 #p pbe1pbe empiricaldispersion=gd3bj may-cc-pVQZ
 ------------------------------------------------

 ---------------------
 benzene dimer 4.90425
 ---------------------
 Symbolic Z-matrix:
 Charge =  0 Multiplicity = 1

                         Standard orientation:
 ---------------------------------------------------------------------
 Center     Atomic      Atomic             Coordinates (Angstroms)
 Number     Number       Type             X           Y           Z
 ---------------------------------------------------------------------
      1          6           0       -1.391500    0.000000   -3.700000
      2          1           0       -2.471500    0.000000   -3.700000
      3          6           0       -0.695750    1.205074   -3.700000
      4          1           0       -1.235750    2.140382   -3.700000
      5          6           0       -0.695750   -1.205074   -3.700000
      6          1           0       -1.235750   -2.140382   -3.700000
      7          6           0        0.695750    1.205074   -3.700000
      8          1           0        1.235750    2.140382   -3.700000
      9          6           0        0.695750   -1.205074   -3.700000
     10          1           0        1.235750   -2.140382   -3.700000
     11          6           0        1.391500    0.000000   -3.700000
     12          1           0        2.471500    0.000000   -3.700000
     13          6           0        0.000000    0.000000    2.308500
     14          6           0        0.000000   -1.205074    3.004250
     15          1           0        0.000000   -2.140382    2.464250
     16          1           0        0.000000    0.000000    1.228500
     17          6           0        0.000000   -1.205074    4.395750
     18          1           0        0.000000   -2.140382    4.935750
     19          6           0        0.000000    0.000000    5.091500
     20          1           0        0.000000    0.000000    6.171500
     21          6           0        0.000000    1.205074    4.395750
     22          1           0        0.000000    2.140382    4.935750
     23          6           0        0.000000    1.205074    3.004250
     24          1           0        0.000000    2.140382    2.464250
 ---------------------------------------------------------------------

 SCF Done:  E(RPBE1PBE) =  -464.132707793     A.U. after   13 cycles
 Error termination via Lnk1e at Sun Mar 19 05:13:44 2017.

 The electronic state is 1-A1.
 Alpha  occ. eigenvalues --  -10.22998 -10.22968 -10.22966 -10.22904 -10.22901
 Alpha  occ. eigenvalues --  -10.22871 -10.22682 -10.22650 -10.22629 -10.22579
 Alpha  occ. eigenvalues --  -10.22579 -10.22524  -0.88442  -0.88113  -0.77264
 Alpha  occ. eigenvalues --   -0.77260  -0.76944  -0.76926  -0.62507  -0.62506
 Alpha  occ. eigenvalues --   -0.62185  -0.62175  -0.54458  -0.54132  -0.47853
 Alpha  occ. eigenvalues --   -0.47528  -0.46494  -0.46167  -0.43772  -0.43766
 Alpha  occ. eigenvalues --   -0.43459  -0.43426  -0.38781  -0.38450  -0.35798
 Alpha  occ. eigenvalues --   -0.35794  -0.35483  -0.35457  -0.27001  -0.26996
 Alpha  occ. eigenvalues --   -0.26679  -0.26660
 Alpha virt. eigenvalues --   -0.01179  -0.01172  -0.00850  -0.00844  -0.00246
 Alpha virt. eigenvalues --    0.00866   0.01323   0.01729   0.02275   0.02342
 Alpha virt. eigenvalues --    0.03726   0.03816   0.04154   0.04241   0.04354

 Mulliken charges:
               1
     1  C   -0.196849
     2  H    0.183588
     3  C   -0.178572
     4  H    0.184983
     5  C   -0.178572
     6  H    0.184983
     7  C   -0.178572
     8  H    0.184983
     9  C   -0.178572
    10  H    0.184983
    11  C   -0.196849
    12  H    0.183588
    13  C   -0.184440
    14  C   -0.167580
    15  H    0.186143
    16  H    0.197047
    17  C   -0.194210
    18  H    0.184166
    19  C   -0.214680
    20  H    0.185914
    21  C   -0.194210
    22  H    0.184166
    23  C   -0.167580
    24  H    0.186143
 Sum of Mulliken charges =   0.00000

 Dipole moment (field-independent basis, Debye):
    X=              0.0000    Y=              0.0000    Z=             -0.1118  Tot=              0.1118
 Quadrupole moment (field-independent basis, Debye-Ang):
   XX=            -71.4948   YY=            -63.6500   ZZ=            -71.8392
   XY=              0.0000   XZ=              0.0000   YZ=              0.0000

 Normal termination of Gaussian 09 at Sun Mar 19 04:50:43 2017.
