 Gaussian 09, Revision D.01,
 Gaussian 09:  EM64L-G09RevD.01 24-Apr-2013

 -------------------------------------------
 #p pbe1pbe empiricaldispersion=gd3bj 6-31g*
 -------------------------------------------

 ---------------------
 benzene dimer 2.40425
 ---------------------
 Symbolic Z-matrix:
 Charge =  0 Multiplicity = 1

                         Standard orientation:
 ---------------------------------------------------------------------
 Center     Atomic      Atomic             Coordinates (Angstroms)
 Number     Number       Type             X           Y           Z
 ---------------------------------------------------------------------
      1          6           0       -1.391500    0.000000   -2.450000
      2          1           0       -2.471500    0.000000   -2.450000
      3          6           0       -0.695750    1.205074   -2.450000
      4          1           0       -1.235750    2.140382   -2.450000
      5          6           0       -0.695750   -1.205074   -2.450000
      6          1           0       -1.235750   -2.140382   -2.450000
      7          6           0        0.695750    1.205074   -2.450000
      8          1           0        1.235750    2.140382   -2.450000
      9          6           0        0.695750   -1.205074   -2.450000
     10          1           0        1.235750   -2.140382   -2.450000
     11          6           0        1.391500    0.000000   -2.450000
     12          1           0        2.471500    0.000000   -2.450000
     13          6           0        0.000000    0.000000    1.058500
     14          6           0        0.000000   -1.205074    1.754250
     15          1           0        0.000000   -2.140382    1.214250
     16          1           0        0.000000    0.000000   -0.021500
     17          6           0        0.000000   -1.205074    3.145750
     18          1           0        0.000000   -2.140382    3.685750
     19          6           0        0.000000    0.000000    3.841500
     20          1           0        0.000000    0.000000    4.921500
     21          6           0        0.000000    1.205074    3.145750
     22          1           0        0.000000    2.140382    3.685750
     23          6           0        0.000000    1.205074    1.754250
     24          1           0        0.000000    2.140382    1.214250
 ---------------------------------------------------------------------

 SCF Done:  E(RPBE1PBE) =  -463.952184113     A.U. after   13 cycles

 The electronic state is 1-A1.
 Alpha  occ. eigenvalues --  -10.24059 -10.24035 -10.24020 -10.23974 -10.23956
 Alpha  occ. eigenvalues --  -10.23935 -10.22750 -10.22711 -10.22666 -10.22548
 Alpha  occ. eigenvalues --  -10.22543 -10.22147  -0.88134  -0.86649  -0.77013
 Alpha  occ. eigenvalues --   -0.76981  -0.75636  -0.75518  -0.62242  -0.62236
 Alpha  occ. eigenvalues --   -0.60891  -0.60828  -0.54201  -0.52837  -0.47788
 Alpha  occ. eigenvalues --   -0.46506  -0.45904  -0.44490  -0.43552  -0.43515
 Alpha  occ. eigenvalues --   -0.42350  -0.42252  -0.38014  -0.36742  -0.35513
 Alpha  occ. eigenvalues --   -0.35490  -0.34198  -0.33753  -0.26462  -0.26424
 Alpha  occ. eigenvalues --   -0.24993  -0.24773
 Alpha virt. eigenvalues --    0.00318   0.00350   0.01767   0.01827   0.09847
 Alpha virt. eigenvalues --    0.11377   0.15258   0.15684   0.16804   0.17087
 Alpha virt. eigenvalues --    0.17253   0.18477   0.19354   0.19418   0.20280

 Mulliken charges:
               1
     1  C   -0.167326
     2  H    0.173778
     3  C   -0.172011
     4  H    0.172363
     5  C   -0.172011
     6  H    0.172363
     7  C   -0.172011
     8  H    0.172363
     9  C   -0.172011
    10  H    0.172363
    11  C   -0.167326
    12  H    0.173778
    13  C   -0.160262
    14  C   -0.175930
    15  H    0.161184
    16  H    0.194347
    17  C   -0.170431
    18  H    0.163633
    19  C   -0.169356
    20  H    0.164046
    21  C   -0.170431
    22  H    0.163633
    23  C   -0.175930
    24  H    0.161184
 Sum of Mulliken charges =   0.00000

 Dipole moment (field-independent basis, Debye):
    X=              0.0000    Y=              0.0000    Z=             -0.6182  Tot=              0.6182
 Quadrupole moment (field-independent basis, Debye-Ang):
   XX=            -69.3413   YY=            -61.9525   ZZ=            -70.2423
   XY=              0.0000   XZ=              0.0000   YZ=              0.0000

 Normal termination of Gaussian 09 at Sun Mar 19 01:33:20 2017.
