 Gaussian 09, Revision D.01,
 Gaussian 09:  EM64L-G09RevD.01 24-Apr-2013

 ---------------
 #p m062x 6-31g*
 ---------------

 ---------------------
 benzene dimer 2.80425
 ---------------------
 Symbolic Z-matrix:
 Charge =  0 Multiplicity = 1

                         Standard orientation:
 ---------------------------------------------------------------------
 Center     Atomic      Atomic             Coordinates (Angstroms)
 Number     Number       Type             X           Y           Z
 ---------------------------------------------------------------------
      1          6           0       -1.391500    0.000000   -2.650000
      2          1           0       -2.471500    0.000000   -2.650000
      3          6           0       -0.695750    1.205074   -2.650000
      4          1           0       -1.235750    2.140382   -2.650000
      5          6           0       -0.695750   -1.205074   -2.650000
      6          1           0       -1.235750   -2.140382   -2.650000
      7          6           0        0.695750    1.205074   -2.650000
      8          1           0        1.235750    2.140382   -2.650000
      9          6           0        0.695750   -1.205074   -2.650000
     10          1           0        1.235750   -2.140382   -2.650000
     11          6           0        1.391500    0.000000   -2.650000
     12          1           0        2.471500    0.000000   -2.650000
     13          6           0        0.000000    0.000000    1.258500
     14          6           0        0.000000   -1.205074    1.954250
     15          1           0        0.000000   -2.140382    1.414250
     16          1           0        0.000000    0.000000    0.178500
     17          6           0        0.000000   -1.205074    3.345750
     18          1           0        0.000000   -2.140382    3.885750
     19          6           0        0.000000    0.000000    4.041500
     20          1           0        0.000000    0.000000    5.121500
     21          6           0        0.000000    1.205074    3.345750
     22          1           0        0.000000    2.140382    3.885750
     23          6           0        0.000000    1.205074    1.954250
     24          1           0        0.000000    2.140382    1.414250
 ---------------------------------------------------------------------

 SCF Done:  E(RM062X) =  -464.275911894     A.U. after   14 cycles

 The electronic state is 1-A1.
 Alpha  occ. eigenvalues --  -10.55083 -10.55052 -10.55040 -10.54974 -10.54961
 Alpha  occ. eigenvalues --  -10.54929 -10.54126 -10.54079 -10.54025 -10.53955
 Alpha  occ. eigenvalues --  -10.53947 -10.53706  -0.95694  -0.94651  -0.84075
 Alpha  occ. eigenvalues --   -0.84053  -0.83087  -0.83001  -0.68415  -0.68410
 Alpha  occ. eigenvalues --   -0.67436  -0.67382  -0.59969  -0.58974  -0.53402
 Alpha  occ. eigenvalues --   -0.52437  -0.50821  -0.49803  -0.48711  -0.48683
 Alpha  occ. eigenvalues --   -0.47770  -0.47729  -0.43479  -0.42492  -0.40084
 Alpha  occ. eigenvalues --   -0.40069  -0.39130  -0.38917  -0.30386  -0.30384
 Alpha  occ. eigenvalues --   -0.29374  -0.29250
 Alpha virt. eigenvalues --    0.03588   0.03602   0.04616   0.04664   0.13433
 Alpha virt. eigenvalues --    0.14307   0.19062   0.19299   0.19803   0.20051
 Alpha virt. eigenvalues --    0.21491   0.22503   0.22830   0.22882   0.23443

 Mulliken charges:
               1
     1  C   -0.161564
     2  H    0.166116
     3  C   -0.164594
     4  H    0.164796
     5  C   -0.164594
     6  H    0.164796
     7  C   -0.164594
     8  H    0.164796
     9  C   -0.164594
    10  H    0.164796
    11  C   -0.161564
    12  H    0.166116
    13  C   -0.152916
    14  C   -0.164733
    15  H    0.157200
    16  H    0.171320
    17  C   -0.163025
    18  H    0.158479
    19  C   -0.162956
    20  H    0.158801
    21  C   -0.163025
    22  H    0.158479
    23  C   -0.164733
    24  H    0.157200
 Sum of Mulliken charges =   0.00000

 Dipole moment (field-independent basis, Debye):
    X=              0.0000    Y=              0.0000    Z=             -0.4168  Tot=              0.4168
 Quadrupole moment (field-independent basis, Debye-Ang):
   XX=            -69.9330   YY=            -62.4905   ZZ=            -70.5471
   XY=              0.0000   XZ=              0.0000   YZ=              0.0000

 Normal termination of Gaussian 09 at Sun Mar 19 00:47:24 2017.
