 Gaussian 09, Revision D.01,
 Gaussian 09:  EM64L-G09RevD.01 24-Apr-2013

 --------------------
 #p m062x may-cc-pVQZ
 --------------------

 ---------------------
 benzene dimer 3.10425
 ---------------------
 Symbolic Z-matrix:
 Charge =  0 Multiplicity = 1

                         Standard orientation:
 ---------------------------------------------------------------------
 Center     Atomic      Atomic             Coordinates (Angstroms)
 Number     Number       Type             X           Y           Z
 ---------------------------------------------------------------------
      1          6           0       -1.391500    0.000000   -2.800000
      2          1           0       -2.471500    0.000000   -2.800000
      3          6           0       -0.695750    1.205074   -2.800000
      4          1           0       -1.235750    2.140382   -2.800000
      5          6           0       -0.695750   -1.205074   -2.800000
      6          1           0       -1.235750   -2.140382   -2.800000
      7          6           0        0.695750    1.205074   -2.800000
      8          1           0        1.235750    2.140382   -2.800000
      9          6           0        0.695750   -1.205074   -2.800000
     10          1           0        1.235750   -2.140382   -2.800000
     11          6           0        1.391500    0.000000   -2.800000
     12          1           0        2.471500    0.000000   -2.800000
     13          6           0        0.000000    0.000000    1.408500
     14          6           0        0.000000   -1.205074    2.104250
     15          1           0        0.000000   -2.140382    1.564250
     16          1           0        0.000000    0.000000    0.328500
     17          6           0        0.000000   -1.205074    3.495750
     18          1           0        0.000000   -2.140382    4.035750
     19          6           0        0.000000    0.000000    4.191500
     20          1           0        0.000000    0.000000    5.271500
     21          6           0        0.000000    1.205074    3.495750
     22          1           0        0.000000    2.140382    4.035750
     23          6           0        0.000000    1.205074    2.104250
     24          1           0        0.000000    2.140382    1.564250
 ---------------------------------------------------------------------

 SCF Done:  E(RM062X) =  -464.477280328     A.U. after   10 cycles

 The electronic state is 1-A1.
 Alpha  occ. eigenvalues --  -10.54648 -10.54614 -10.54606 -10.54531 -10.54522
 Alpha  occ. eigenvalues --  -10.54486 -10.53893 -10.53848 -10.53795 -10.53743
 Alpha  occ. eigenvalues --  -10.53734 -10.53585  -0.96415  -0.95606  -0.84732
 Alpha  occ. eigenvalues --   -0.84716  -0.83954  -0.83895  -0.69036  -0.69032
 Alpha  occ. eigenvalues --   -0.68263  -0.68226  -0.60560  -0.59774  -0.53819
 Alpha  occ. eigenvalues --   -0.53049  -0.51725  -0.50929  -0.49285  -0.49262
 Alpha  occ. eigenvalues --   -0.48537  -0.48476  -0.44462  -0.43668  -0.40690
 Alpha  occ. eigenvalues --   -0.40678  -0.39936  -0.39817  -0.31339  -0.31337
 Alpha  occ. eigenvalues --   -0.30544  -0.30451
 Alpha virt. eigenvalues --   -0.00300   0.00586   0.00767   0.01127   0.01216
 Alpha virt. eigenvalues --    0.01342   0.02110   0.02184   0.02196   0.02233
 Alpha virt. eigenvalues --    0.02967   0.03081   0.03826   0.04051   0.04095

 Mulliken charges:
               1
     1  C   -0.476891
     2  H    0.466944
     3  C   -0.468255
     4  H    0.467821
     5  C   -0.468255
     6  H    0.467821
     7  C   -0.468255
     8  H    0.467821
     9  C   -0.468255
    10  H    0.467821
    11  C   -0.476891
    12  H    0.466944
    13  C   -0.664850
    14  C   -0.402544
    15  H    0.469100
    16  H    0.492941
    17  C   -0.416302
    18  H    0.451192
    19  C   -0.438602
    20  H    0.429249
    21  C   -0.416302
    22  H    0.451192
    23  C   -0.402544
    24  H    0.469100
 Sum of Mulliken charges =   0.00000

 Dipole moment (field-independent basis, Debye):
    X=              0.0000    Y=              0.0000    Z=             -0.3346  Tot=              0.3346
 Quadrupole moment (field-independent basis, Debye-Ang):
   XX=            -71.8244   YY=            -64.1494   ZZ=            -72.3434
   XY=              0.0000   XZ=              0.0000   YZ=              0.0000

 Normal termination of Gaussian 09 at Sun Mar 19 03:19:39 2017.
