 Gaussian 09, Revision D.01,
 Gaussian 09:  EM64L-G09RevD.01 24-Apr-2013

 ---------------
 #p m062x 6-31g*
 ---------------

 ---------------------
 benzene dimer 2.30425
 ---------------------
 Symbolic Z-matrix:
 Charge =  0 Multiplicity = 1

                         Standard orientation:
 ---------------------------------------------------------------------
 Center     Atomic      Atomic             Coordinates (Angstroms)
 Number     Number       Type             X           Y           Z
 ---------------------------------------------------------------------
      1          6           0       -1.391500    0.000000   -2.400000
      2          1           0       -2.471500    0.000000   -2.400000
      3          6           0       -0.695750    1.205074   -2.400000
      4          1           0       -1.235750    2.140382   -2.400000
      5          6           0       -0.695750   -1.205074   -2.400000
      6          1           0       -1.235750   -2.140382   -2.400000
      7          6           0        0.695750    1.205074   -2.400000
      8          1           0        1.235750    2.140382   -2.400000
      9          6           0        0.695750   -1.205074   -2.400000
     10          1           0        1.235750   -2.140382   -2.400000
     11          6           0        1.391500    0.000000   -2.400000
     12          1           0        2.471500    0.000000   -2.400000
     13          6           0        0.000000    0.000000    1.008500
     14          6           0        0.000000   -1.205074    1.704250
     15          1           0        0.000000   -2.140382    1.164250
     16          1           0        0.000000    0.000000   -0.071500
     17          6           0        0.000000   -1.205074    3.095750
     18          1           0        0.000000   -2.140382    3.635750
     19          6           0        0.000000    0.000000    3.791500
     20          1           0        0.000000    0.000000    4.871500
     21          6           0        0.000000    1.205074    3.095750
     22          1           0        0.000000    2.140382    3.635750
     23          6           0        0.000000    1.205074    1.704250
     24          1           0        0.000000    2.140382    1.164250
 ---------------------------------------------------------------------

 SCF Done:  E(RM062X) =  -464.276893913     A.U. after   14 cycles

 The electronic state is 1-A1.
 Alpha  occ. eigenvalues --  -10.55252 -10.55223 -10.55206 -10.55145 -10.55125
 Alpha  occ. eigenvalues --  -10.55096 -10.53927 -10.53880 -10.53822 -10.53713
 Alpha  occ. eigenvalues --  -10.53707 -10.53293  -0.95932  -0.94412  -0.84266
 Alpha  occ. eigenvalues --   -0.84231  -0.82871  -0.82746  -0.68576  -0.68570
 Alpha  occ. eigenvalues --   -0.67210  -0.67154  -0.60151  -0.58781  -0.53538
 Alpha  occ. eigenvalues --   -0.52270  -0.50991  -0.49566  -0.48884  -0.48842
 Alpha  occ. eigenvalues --   -0.47839  -0.47569  -0.43359  -0.42276  -0.40240
 Alpha  occ. eigenvalues --   -0.40219  -0.38910  -0.38403  -0.30725  -0.30637
 Alpha  occ. eigenvalues --   -0.29173  -0.28889
 Alpha virt. eigenvalues --    0.03303   0.03357   0.04874   0.04893   0.13220
 Alpha virt. eigenvalues --    0.14791   0.18621   0.19209   0.20349   0.20663
 Alpha virt. eigenvalues --    0.21265   0.22718   0.22771   0.22844   0.23558

 Mulliken charges:
               1
     1  C   -0.160125
     2  H    0.168006
     3  C   -0.165748
     4  H    0.166384
     5  C   -0.165748
     6  H    0.166384
     7  C   -0.165748
     8  H    0.166384
     9  C   -0.165748
    10  H    0.166384
    11  C   -0.160125
    12  H    0.168006
    13  C   -0.133457
    14  C   -0.166323
    15  H    0.151856
    16  H    0.163993
    17  C   -0.164171
    18  H    0.157000
    19  C   -0.163025
    20  H    0.157460
    21  C   -0.164171
    22  H    0.157000
    23  C   -0.166323
    24  H    0.151856
 Sum of Mulliken charges =   0.00000

 Dipole moment (field-independent basis, Debye):
    X=              0.0000    Y=              0.0000    Z=             -0.6107  Tot=              0.6107
 Quadrupole moment (field-independent basis, Debye-Ang):
   XX=            -69.8065   YY=            -62.5963   ZZ=            -70.6406
   XY=              0.0000   XZ=              0.0000   YZ=              0.0000

 Normal termination of Gaussian 09 at Sun Mar 19 00:43:45 2017.
