 Gaussian 09, Revision D.01,
 Gaussian 09:  EM64L-G09RevD.01 24-Apr-2013

 -------------------------------------------
 #p pbe1pbe empiricaldispersion=gd3bj 6-31g*
 -------------------------------------------

 ---------------------
 benzene dimer 5.40425
 ---------------------
 Symbolic Z-matrix:
 Charge =  0 Multiplicity = 1

                         Standard orientation:
 ---------------------------------------------------------------------
 Center     Atomic      Atomic             Coordinates (Angstroms)
 Number     Number       Type             X           Y           Z
 ---------------------------------------------------------------------
      1          6           0       -1.391500    0.000000   -3.950000
      2          1           0       -2.471500    0.000000   -3.950000
      3          6           0       -0.695750    1.205074   -3.950000
      4          1           0       -1.235750    2.140382   -3.950000
      5          6           0       -0.695750   -1.205074   -3.950000
      6          1           0       -1.235750   -2.140382   -3.950000
      7          6           0        0.695750    1.205074   -3.950000
      8          1           0        1.235750    2.140382   -3.950000
      9          6           0        0.695750   -1.205074   -3.950000
     10          1           0        1.235750   -2.140382   -3.950000
     11          6           0        1.391500    0.000000   -3.950000
     12          1           0        2.471500    0.000000   -3.950000
     13          6           0        0.000000    0.000000    2.558500
     14          6           0        0.000000   -1.205074    3.254250
     15          1           0        0.000000   -2.140382    2.714250
     16          1           0        0.000000    0.000000    1.478500
     17          6           0        0.000000   -1.205074    4.645750
     18          1           0        0.000000   -2.140382    5.185750
     19          6           0        0.000000    0.000000    5.341500
     20          1           0        0.000000    0.000000    6.421500
     21          6           0        0.000000    1.205074    4.645750
     22          1           0        0.000000    2.140382    5.185750
     23          6           0        0.000000    1.205074    3.254250
     24          1           0        0.000000    2.140382    2.714250
 ---------------------------------------------------------------------

 SCF Done:  E(RPBE1PBE) =  -463.946899944     A.U. after   12 cycles

 The electronic state is 1-A1.
 Alpha  occ. eigenvalues --  -10.23591 -10.23562 -10.23561 -10.23501 -10.23499
 Alpha  occ. eigenvalues --  -10.23471 -10.23333 -10.23302 -10.23285 -10.23236
 Alpha  occ. eigenvalues --  -10.23236 -10.23188  -0.87587  -0.87319  -0.76520
 Alpha  occ. eigenvalues --   -0.76517  -0.76258  -0.76245  -0.61802  -0.61801
 Alpha  occ. eigenvalues --   -0.61539  -0.61530  -0.53755  -0.53488  -0.47406
 Alpha  occ. eigenvalues --   -0.47140  -0.45437  -0.45170  -0.43102  -0.43097
 Alpha  occ. eigenvalues --   -0.42845  -0.42820  -0.37644  -0.37375  -0.35082
 Alpha  occ. eigenvalues --   -0.35079  -0.34823  -0.34803  -0.25846  -0.25843
 Alpha  occ. eigenvalues --   -0.25583  -0.25570
 Alpha virt. eigenvalues --    0.00864   0.00867   0.01127   0.01139   0.10284
 Alpha virt. eigenvalues --    0.10550   0.15926   0.15939   0.16157   0.16243
 Alpha virt. eigenvalues --    0.17564   0.17831   0.19660   0.19667   0.19900

 Mulliken charges:
               1
     1  C   -0.168745
     2  H    0.169075
     3  C   -0.168924
     4  H    0.168760
     5  C   -0.168924
     6  H    0.168760
     7  C   -0.168924
     8  H    0.168760
     9  C   -0.168924
    10  H    0.168760
    11  C   -0.168745
    12  H    0.169075
    13  C   -0.170140
    14  C   -0.168792
    15  H    0.168410
    16  H    0.173968
    17  C   -0.168570
    18  H    0.167583
    19  C   -0.168708
    20  H    0.167612
    21  C   -0.168570
    22  H    0.167583
    23  C   -0.168792
    24  H    0.168410
 Sum of Mulliken charges =   0.00000

 Dipole moment (field-independent basis, Debye):
    X=              0.0000    Y=              0.0000    Z=             -0.0692  Tot=              0.0692
 Quadrupole moment (field-independent basis, Debye-Ang):
   XX=            -69.6470   YY=            -61.7694   ZZ=            -69.9908
   XY=              0.0000   XZ=              0.0000   YZ=              0.0000

 Normal termination of Gaussian 09 at Sun Mar 19 01:34:13 2017.
