 Gaussian 09, Revision D.01,
 Gaussian 09:  EM64L-G09RevD.01 24-Apr-2013

 ------------------------------------------
 #p b3lyp empiricaldispersion=gd3bj cc-pVDZ
 ------------------------------------------

 ---------------------
 benzene dimer 2.40425
 ---------------------
 Symbolic Z-matrix:
 Charge =  0 Multiplicity = 1

                         Standard orientation:
 ---------------------------------------------------------------------
 Center     Atomic      Atomic             Coordinates (Angstroms)
 Number     Number       Type             X           Y           Z
 ---------------------------------------------------------------------
      1          6           0       -1.391500    0.000000   -2.450000
      2          1           0       -2.471500    0.000000   -2.450000
      3          6           0       -0.695750    1.205074   -2.450000
      4          1           0       -1.235750    2.140382   -2.450000
      5          6           0       -0.695750   -1.205074   -2.450000
      6          1           0       -1.235750   -2.140382   -2.450000
      7          6           0        0.695750    1.205074   -2.450000
      8          1           0        1.235750    2.140382   -2.450000
      9          6           0        0.695750   -1.205074   -2.450000
     10          1           0        1.235750   -2.140382   -2.450000
     11          6           0        1.391500    0.000000   -2.450000
     12          1           0        2.471500    0.000000   -2.450000
     13          6           0        0.000000    0.000000    1.058500
     14          6           0        0.000000   -1.205074    1.754250
     15          1           0        0.000000   -2.140382    1.214250
     16          1           0        0.000000    0.000000   -0.021500
     17          6           0        0.000000   -1.205074    3.145750
     18          1           0        0.000000   -2.140382    3.685750
     19          6           0        0.000000    0.000000    3.841500
     20          1           0        0.000000    0.000000    4.921500
     21          6           0        0.000000    1.205074    3.145750
     22          1           0        0.000000    2.140382    3.685750
     23          6           0        0.000000    1.205074    1.754250
     24          1           0        0.000000    2.140382    1.214250
 ---------------------------------------------------------------------

 SCF Done:  E(RB3LYP) =  -464.567475597     A.U. after   13 cycles

 The electronic state is 1-A1.
 Alpha  occ. eigenvalues --  -10.19347 -10.19327 -10.19313 -10.19275 -10.19259
 Alpha  occ. eigenvalues --  -10.19243 -10.18164 -10.18134 -10.18096 -10.17984
 Alpha  occ. eigenvalues --  -10.17981 -10.17632  -0.86134  -0.84801  -0.75256
 Alpha  occ. eigenvalues --   -0.75229  -0.74024  -0.73924  -0.60830  -0.60826
 Alpha  occ. eigenvalues --   -0.59628  -0.59575  -0.52875  -0.51667  -0.46605
 Alpha  occ. eigenvalues --   -0.45478  -0.45121  -0.43863  -0.42669  -0.42638
 Alpha  occ. eigenvalues --   -0.41621  -0.41511  -0.37191  -0.36064  -0.34864
 Alpha  occ. eigenvalues --   -0.34845  -0.33695  -0.33267  -0.26063  -0.25991
 Alpha  occ. eigenvalues --   -0.24708  -0.24478
 Alpha virt. eigenvalues --   -0.01083  -0.01045   0.00259   0.00288   0.05202
 Alpha virt. eigenvalues --    0.07226   0.08605   0.09734   0.11104   0.11458
 Alpha virt. eigenvalues --    0.13215   0.13446   0.14594   0.14887   0.15078

 Mulliken charges:
               1
     1  C    0.036198
     2  H   -0.032802
     3  C    0.033187
     4  H   -0.033555
     5  C    0.033187
     6  H   -0.033555
     7  C    0.033187
     8  H   -0.033555
     9  C    0.033187
    10  H   -0.033555
    11  C    0.036198
    12  H   -0.032802
    13  C    0.070875
    14  C    0.021273
    15  H   -0.047329
    16  H   -0.012941
    17  C    0.038336
    18  H   -0.040291
    19  C    0.032880
    20  H   -0.040113
    21  C    0.038336
    22  H   -0.040291
    23  C    0.021273
    24  H   -0.047329
 Sum of Mulliken charges =   0.00000

 Dipole moment (field-independent basis, Debye):
    X=              0.0000    Y=              0.0000    Z=             -0.5623  Tot=              0.5623
 Quadrupole moment (field-independent basis, Debye-Ang):
   XX=            -70.6289   YY=            -64.3168   ZZ=            -71.5586
   XY=              0.0000   XZ=              0.0000   YZ=              0.0000

 Normal termination of Gaussian 09 at Sun Mar 19 00:43:13 2017.
