 Gaussian 09, Revision D.01,
 Gaussian 09:  EM64L-G09RevD.01 24-Apr-2013

 ---------------
 #p m062x 6-31g*
 ---------------

 ---------------------
 benzene dimer 5.40425
 ---------------------
 Symbolic Z-matrix:
 Charge =  0 Multiplicity = 1

                         Standard orientation:
 ---------------------------------------------------------------------
 Center     Atomic      Atomic             Coordinates (Angstroms)
 Number     Number       Type             X           Y           Z
 ---------------------------------------------------------------------
      1          6           0       -1.391500    0.000000   -3.950000
      2          1           0       -2.471500    0.000000   -3.950000
      3          6           0       -0.695750    1.205074   -3.950000
      4          1           0       -1.235750    2.140382   -3.950000
      5          6           0       -0.695750   -1.205074   -3.950000
      6          1           0       -1.235750   -2.140382   -3.950000
      7          6           0        0.695750    1.205074   -3.950000
      8          1           0        1.235750    2.140382   -3.950000
      9          6           0        0.695750   -1.205074   -3.950000
     10          1           0        1.235750   -2.140382   -3.950000
     11          6           0        1.391500    0.000000   -3.950000
     12          1           0        2.471500    0.000000   -3.950000
     13          6           0        0.000000    0.000000    2.558500
     14          6           0        0.000000   -1.205074    3.254250
     15          1           0        0.000000   -2.140382    2.714250
     16          1           0        0.000000    0.000000    1.478500
     17          6           0        0.000000   -1.205074    4.645750
     18          1           0        0.000000   -2.140382    5.185750
     19          6           0        0.000000    0.000000    5.341500
     20          1           0        0.000000    0.000000    6.421500
     21          6           0        0.000000    1.205074    4.645750
     22          1           0        0.000000    2.140382    5.185750
     23          6           0        0.000000    1.205074    3.254250
     24          1           0        0.000000    2.140382    2.714250
 ---------------------------------------------------------------------

 SCF Done:  E(RM062X) =  -464.272772512     A.U. after   13 cycles

 The electronic state is 1-A1.
 Alpha  occ. eigenvalues --  -10.54762 -10.54727 -10.54725 -10.54648 -10.54647
 Alpha  occ. eigenvalues --  -10.54610 -10.54508 -10.54471 -10.54454 -10.54389
 Alpha  occ. eigenvalues --  -10.54387 -10.54335  -0.95350  -0.95087  -0.83751
 Alpha  occ. eigenvalues --   -0.83747  -0.83494  -0.83480  -0.68120  -0.68118
 Alpha  occ. eigenvalues --   -0.67862  -0.67853  -0.59678  -0.59417  -0.53143
 Alpha  occ. eigenvalues --   -0.52882  -0.50510  -0.50248  -0.48412  -0.48406
 Alpha  occ. eigenvalues --   -0.48161  -0.48134  -0.43174  -0.42910  -0.39795
 Alpha  occ. eigenvalues --   -0.39793  -0.39541  -0.39523  -0.30019  -0.30015
 Alpha  occ. eigenvalues --   -0.29761  -0.29747
 Alpha virt. eigenvalues --    0.03951   0.03952   0.04208   0.04219   0.13718
 Alpha virt. eigenvalues --    0.13978   0.19451   0.19465   0.19676   0.19759
 Alpha virt. eigenvalues --    0.21825   0.22086   0.23090   0.23097   0.23326

 Mulliken charges:
               1
     1  C   -0.162456
     2  H    0.162699
     3  C   -0.162434
     4  H    0.162313
     5  C   -0.162434
     6  H    0.162313
     7  C   -0.162434
     8  H    0.162313
     9  C   -0.162434
    10  H    0.162313
    11  C   -0.162456
    12  H    0.162699
    13  C   -0.163642
    14  C   -0.162320
    15  H    0.161959
    16  H    0.167417
    17  C   -0.162072
    18  H    0.161122
    19  C   -0.162369
    20  H    0.161210
    21  C   -0.162072
    22  H    0.161122
    23  C   -0.162320
    24  H    0.161959
 Sum of Mulliken charges =   0.00000

 Dipole moment (field-independent basis, Debye):
    X=              0.0000    Y=              0.0000    Z=             -0.0677  Tot=              0.0677
 Quadrupole moment (field-independent basis, Debye-Ang):
   XX=            -70.1336   YY=            -62.3896   ZZ=            -70.4713
   XY=              0.0000   XZ=              0.0000   YZ=              0.0000

 Normal termination of Gaussian 09 at Sun Mar 19 01:01:23 2017.
