 Gaussian 09, Revision D.01,
 Gaussian 09:  EM64L-G09RevD.01 24-Apr-2013

 ------------
 #p hf 6-31g*
 ------------

 ---------------------
 benzene dimer 3.10425
 ---------------------
 Symbolic Z-matrix:
 Charge =  0 Multiplicity = 1

                         Standard orientation:
 ---------------------------------------------------------------------
 Center     Atomic      Atomic             Coordinates (Angstroms)
 Number     Number       Type             X           Y           Z
 ---------------------------------------------------------------------
      1          6           0       -1.391500    0.000000   -2.800000
      2          1           0       -2.471500    0.000000   -2.800000
      3          6           0       -0.695750    1.205074   -2.800000
      4          1           0       -1.235750    2.140382   -2.800000
      5          6           0       -0.695750   -1.205074   -2.800000
      6          1           0       -1.235750   -2.140382   -2.800000
      7          6           0        0.695750    1.205074   -2.800000
      8          1           0        1.235750    2.140382   -2.800000
      9          6           0        0.695750   -1.205074   -2.800000
     10          1           0        1.235750   -2.140382   -2.800000
     11          6           0        1.391500    0.000000   -2.800000
     12          1           0        2.471500    0.000000   -2.800000
     13          6           0        0.000000    0.000000    1.408500
     14          6           0        0.000000   -1.205074    2.104250
     15          1           0        0.000000   -2.140382    1.564250
     16          1           0        0.000000    0.000000    0.328500
     17          6           0        0.000000   -1.205074    3.495750
     18          1           0        0.000000   -2.140382    4.035750
     19          6           0        0.000000    0.000000    4.191500
     20          1           0        0.000000    0.000000    5.271500
     21          6           0        0.000000    1.205074    3.495750
     22          1           0        0.000000    2.140382    4.035750
     23          6           0        0.000000    1.205074    2.104250
     24          1           0        0.000000    2.140382    1.564250
 ---------------------------------------------------------------------

 SCF Done:  E(RHF) =  -461.406826606     A.U. after   11 cycles

 The electronic state is 1-A1.
 Alpha  occ. eigenvalues --  -11.23519 -11.23467 -11.23457 -11.23345 -11.23335
 Alpha  occ. eigenvalues --  -11.23281 -11.22654 -11.22593 -11.22508 -11.22436
 Alpha  occ. eigenvalues --  -11.22423 -11.22221  -1.14854  -1.13913  -1.01292
 Alpha  occ. eigenvalues --   -1.01274  -1.00396  -1.00324  -0.82184  -0.82181
 Alpha  occ. eigenvalues --   -0.81291  -0.81253  -0.70790  -0.69880  -0.64259
 Alpha  occ. eigenvalues --   -0.63371  -0.61550  -0.60627  -0.58631  -0.58610
 Alpha  occ. eigenvalues --   -0.57769  -0.57671  -0.50051  -0.49243  -0.49228
 Alpha  occ. eigenvalues --   -0.49040  -0.48373  -0.48145  -0.33366  -0.33350
 Alpha  occ. eigenvalues --   -0.32479  -0.32354
 Alpha virt. eigenvalues --    0.14458   0.14473   0.15347   0.15419   0.23206
 Alpha virt. eigenvalues --    0.24065   0.29021   0.29159   0.29843   0.29951
 Alpha virt. eigenvalues --    0.32973   0.32980   0.33469   0.33657   0.33685

 Mulliken charges:
               1
     1  C   -0.199878
     2  H    0.203044
     3  C   -0.202282
     4  H    0.201950
     5  C   -0.202282
     6  H    0.201950
     7  C   -0.202282
     8  H    0.201950
     9  C   -0.202282
    10  H    0.201950
    11  C   -0.199878
    12  H    0.203044
    13  C   -0.210596
    14  C   -0.203097
    15  H    0.197570
    16  H    0.226981
    17  C   -0.199559
    18  H    0.196688
    19  C   -0.201485
    20  H    0.196890
    21  C   -0.199559
    22  H    0.196688
    23  C   -0.203097
    24  H    0.197570
 Sum of Mulliken charges =   0.00000

 Dipole moment (field-independent basis, Debye):
    X=              0.0000    Y=              0.0000    Z=             -0.3578  Tot=              0.3578
 Quadrupole moment (field-independent basis, Debye-Ang):
   XX=            -71.0495   YY=            -62.8586   ZZ=            -71.7598
   XY=              0.0000   XZ=              0.0000   YZ=              0.0000

 Normal termination of Gaussian 09 at Sun Mar 19 00:50:25 2017.
