 Gaussian 09, Revision D.01,
 Gaussian 09:  EM64L-G09RevD.01 24-Apr-2013

 -------------------------------------------
 #p pbe1pbe empiricaldispersion=gd3bj 6-31g*
 -------------------------------------------

 ---------------------
 benzene dimer 3.40425
 ---------------------
 Symbolic Z-matrix:
 Charge =  0 Multiplicity = 1

                         Standard orientation:
 ---------------------------------------------------------------------
 Center     Atomic      Atomic             Coordinates (Angstroms)
 Number     Number       Type             X           Y           Z
 ---------------------------------------------------------------------
      1          6           0       -1.391500    0.000000   -2.950000
      2          1           0       -2.471500    0.000000   -2.950000
      3          6           0       -0.695750    1.205074   -2.950000
      4          1           0       -1.235750    2.140382   -2.950000
      5          6           0       -0.695750   -1.205074   -2.950000
      6          1           0       -1.235750   -2.140382   -2.950000
      7          6           0        0.695750    1.205074   -2.950000
      8          1           0        1.235750    2.140382   -2.950000
      9          6           0        0.695750   -1.205074   -2.950000
     10          1           0        1.235750   -2.140382   -2.950000
     11          6           0        1.391500    0.000000   -2.950000
     12          1           0        2.471500    0.000000   -2.950000
     13          6           0        0.000000    0.000000    1.558500
     14          6           0        0.000000   -1.205074    2.254250
     15          1           0        0.000000   -2.140382    1.714250
     16          1           0        0.000000    0.000000    0.478500
     17          6           0        0.000000   -1.205074    3.645750
     18          1           0        0.000000   -2.140382    4.185750
     19          6           0        0.000000    0.000000    4.341500
     20          1           0        0.000000    0.000000    5.421500
     21          6           0        0.000000    1.205074    3.645750
     22          1           0        0.000000    2.140382    4.185750
     23          6           0        0.000000    1.205074    2.254250
     24          1           0        0.000000    2.140382    1.714250
 ---------------------------------------------------------------------

 SCF Done:  E(RPBE1PBE) =  -463.949357321     A.U. after   13 cycles

 The electronic state is 1-A1.
 Alpha  occ. eigenvalues --  -10.23778 -10.23752 -10.23746 -10.23691 -10.23684
 Alpha  occ. eigenvalues --  -10.23658 -10.23093 -10.23056 -10.23016 -10.22968
 Alpha  occ. eigenvalues --  -10.22961 -10.22816  -0.87785  -0.87048  -0.76711
 Alpha  occ. eigenvalues --   -0.76699  -0.76004  -0.75950  -0.61978  -0.61974
 Alpha  occ. eigenvalues --   -0.61275  -0.61238  -0.53926  -0.53208  -0.47562
 Alpha  occ. eigenvalues --   -0.46856  -0.45623  -0.44895  -0.43279  -0.43263
 Alpha  occ. eigenvalues --   -0.42600  -0.42509  -0.37868  -0.37114  -0.35255
 Alpha  occ. eigenvalues --   -0.35243  -0.34568  -0.34468  -0.26053  -0.26037
 Alpha  occ. eigenvalues --   -0.25339  -0.25282
 Alpha virt. eigenvalues --    0.00671   0.00680   0.01375   0.01419   0.10142
 Alpha virt. eigenvalues --    0.10776   0.15771   0.15834   0.16356   0.16364
 Alpha virt. eigenvalues --    0.17382   0.18096   0.19533   0.19547   0.20020

 Mulliken charges:
               1
     1  C   -0.168629
     2  H    0.170976
     3  C   -0.170222
     4  H    0.170080
     5  C   -0.170222
     6  H    0.170080
     7  C   -0.170222
     8  H    0.170080
     9  C   -0.170222
    10  H    0.170080
    11  C   -0.168629
    12  H    0.170976
    13  C   -0.174175
    14  C   -0.170014
    15  H    0.166959
    16  H    0.184926
    17  C   -0.168827
    18  H    0.165961
    19  C   -0.169215
    20  H    0.166183
    21  C   -0.168827
    22  H    0.165961
    23  C   -0.170014
    24  H    0.166959
 Sum of Mulliken charges =   0.00000

 Dipole moment (field-independent basis, Debye):
    X=              0.0000    Y=              0.0000    Z=             -0.2772  Tot=              0.2772
 Quadrupole moment (field-independent basis, Debye-Ang):
   XX=            -69.5411   YY=            -61.8227   ZZ=            -70.1033
   XY=              0.0000   XZ=              0.0000   YZ=              0.0000

 Normal termination of Gaussian 09 at Sun Mar 19 01:33:25 2017.
