 Gaussian 09, Revision D.01,
 Gaussian 09:  EM64L-G09RevD.01 24-Apr-2013

 -----------------------------------------
 #p b3lyp empiricaldispersion=gd3bj 6-31g*
 -----------------------------------------

 ---------------------
 benzene dimer 2.90425
 ---------------------
 Symbolic Z-matrix:
 Charge =  0 Multiplicity = 1

                         Standard orientation:
 ---------------------------------------------------------------------
 Center     Atomic      Atomic             Coordinates (Angstroms)
 Number     Number       Type             X           Y           Z
 ---------------------------------------------------------------------
      1          6           0       -1.391500    0.000000   -2.700000
      2          1           0       -2.471500    0.000000   -2.700000
      3          6           0       -0.695750    1.205074   -2.700000
      4          1           0       -1.235750    2.140382   -2.700000
      5          6           0       -0.695750   -1.205074   -2.700000
      6          1           0       -1.235750   -2.140382   -2.700000
      7          6           0        0.695750    1.205074   -2.700000
      8          1           0        1.235750    2.140382   -2.700000
      9          6           0        0.695750   -1.205074   -2.700000
     10          1           0        1.235750   -2.140382   -2.700000
     11          6           0        1.391500    0.000000   -2.700000
     12          1           0        2.471500    0.000000   -2.700000
     13          6           0        0.000000    0.000000    1.308500
     14          6           0        0.000000   -1.205074    2.004250
     15          1           0        0.000000   -2.140382    1.464250
     16          1           0        0.000000    0.000000    0.228500
     17          6           0        0.000000   -1.205074    3.395750
     18          1           0        0.000000   -2.140382    3.935750
     19          6           0        0.000000    0.000000    4.091500
     20          1           0        0.000000    0.000000    5.171500
     21          6           0        0.000000    1.205074    3.395750
     22          1           0        0.000000    2.140382    3.935750
     23          6           0        0.000000    1.205074    2.004250
     24          1           0        0.000000    2.140382    1.464250
 ---------------------------------------------------------------------

 SCF Done:  E(RB3LYP) =  -464.539054209     A.U. after   13 cycles

 The electronic state is 1-A1.
 Alpha  occ. eigenvalues --  -10.18911 -10.18887 -10.18878 -10.18830 -10.18819
 Alpha  occ. eigenvalues --  -10.18797 -10.18025 -10.17988 -10.17949 -10.17882
 Alpha  occ. eigenvalues --  -10.17876 -10.17653  -0.85267  -0.84296  -0.74516
 Alpha  occ. eigenvalues --   -0.74498  -0.73594  -0.73518  -0.60231  -0.60227
 Alpha  occ. eigenvalues --   -0.59320  -0.59269  -0.52438  -0.51509  -0.46319
 Alpha  occ. eigenvalues --   -0.45416  -0.44290  -0.43339  -0.42189  -0.42167
 Alpha  occ. eigenvalues --   -0.41310  -0.41228  -0.36510  -0.35530  -0.34396
 Alpha  occ. eigenvalues --   -0.34382  -0.33506  -0.33306  -0.25090  -0.25082
 Alpha  occ. eigenvalues --   -0.24151  -0.24053
 Alpha virt. eigenvalues --    0.00097   0.00108   0.01022   0.01077   0.08980
 Alpha virt. eigenvalues --    0.09889   0.14272   0.14431   0.15155   0.15294
 Alpha virt. eigenvalues --    0.16302   0.17226   0.18152   0.18158   0.18846

 Mulliken charges:
               1
     1  C   -0.127208
     2  H    0.131179
     3  C   -0.129725
     4  H    0.130166
     5  C   -0.129725
     6  H    0.130166
     7  C   -0.129725
     8  H    0.130166
     9  C   -0.129725
    10  H    0.130166
    11  C   -0.127208
    12  H    0.131179
    13  C   -0.138243
    14  C   -0.131334
    15  H    0.124709
    16  H    0.153369
    17  C   -0.128156
    18  H    0.124300
    19  C   -0.128465
    20  H    0.124596
    21  C   -0.128156
    22  H    0.124300
    23  C   -0.131334
    24  H    0.124709
 Sum of Mulliken charges =   0.00000

 Dipole moment (field-independent basis, Debye):
    X=              0.0000    Y=              0.0000    Z=             -0.4192  Tot=              0.4192
 Quadrupole moment (field-independent basis, Debye-Ang):
   XX=            -69.6951   YY=            -62.9250   ZZ=            -70.2969
   XY=              0.0000   XZ=              0.0000   YZ=              0.0000

 Normal termination of Gaussian 09 at Sun Mar 19 00:47:38 2017.
