 Gaussian 09, Revision D.01,
 Gaussian 09:  EM64L-G09RevD.01 24-Apr-2013

 ---------------
 #p m062x 6-31g*
 ---------------

 ---------------------
 benzene dimer 3.90425
 ---------------------
 Symbolic Z-matrix:
 Charge =  0 Multiplicity = 1

                         Standard orientation:
 ---------------------------------------------------------------------
 Center     Atomic      Atomic             Coordinates (Angstroms)
 Number     Number       Type             X           Y           Z
 ---------------------------------------------------------------------
      1          6           0       -1.391500    0.000000   -3.200000
      2          1           0       -2.471500    0.000000   -3.200000
      3          6           0       -0.695750    1.205074   -3.200000
      4          1           0       -1.235750    2.140382   -3.200000
      5          6           0       -0.695750   -1.205074   -3.200000
      6          1           0       -1.235750   -2.140382   -3.200000
      7          6           0        0.695750    1.205074   -3.200000
      8          1           0        1.235750    2.140382   -3.200000
      9          6           0        0.695750   -1.205074   -3.200000
     10          1           0        1.235750   -2.140382   -3.200000
     11          6           0        1.391500    0.000000   -3.200000
     12          1           0        2.471500    0.000000   -3.200000
     13          6           0        0.000000    0.000000    1.808500
     14          6           0        0.000000   -1.205074    2.504250
     15          1           0        0.000000   -2.140382    1.964250
     16          1           0        0.000000    0.000000    0.728500
     17          6           0        0.000000   -1.205074    3.895750
     18          1           0        0.000000   -2.140382    4.435750
     19          6           0        0.000000    0.000000    4.591500
     20          1           0        0.000000    0.000000    5.671500
     21          6           0        0.000000    1.205074    3.895750
     22          1           0        0.000000    2.140382    4.435750
     23          6           0        0.000000    1.205074    2.504250
     24          1           0        0.000000    2.140382    1.964250
 ---------------------------------------------------------------------

 SCF Done:  E(RM062X) =  -464.273566254     A.U. after   13 cycles

 The electronic state is 1-A1.
 Alpha  occ. eigenvalues --  -10.54870 -10.54836 -10.54831 -10.54757 -10.54753
 Alpha  occ. eigenvalues --  -10.54717 -10.54367 -10.54324 -10.54286 -10.54235
 Alpha  occ. eigenvalues --  -10.54230 -10.54127  -0.95461  -0.94928  -0.83859
 Alpha  occ. eigenvalues --   -0.83850  -0.83344  -0.83307  -0.68220  -0.68217
 Alpha  occ. eigenvalues --   -0.67707  -0.67682  -0.59776  -0.59252  -0.53232
 Alpha  occ. eigenvalues --   -0.52714  -0.50614  -0.50086  -0.48513  -0.48501
 Alpha  occ. eigenvalues --   -0.48016  -0.47949  -0.43299  -0.42756  -0.39893
 Alpha  occ. eigenvalues --   -0.39887  -0.39391  -0.39336  -0.30135  -0.30124
 Alpha  occ. eigenvalues --   -0.29617  -0.29581
 Alpha virt. eigenvalues --    0.03839   0.03845   0.04353   0.04383   0.13640
 Alpha virt. eigenvalues --    0.14118   0.19371   0.19406   0.19792   0.19866
 Alpha virt. eigenvalues --    0.21719   0.22242   0.23016   0.23030   0.23454

 Mulliken charges:
               1
     1  C   -0.162651
     2  H    0.163825
     3  C   -0.163307
     4  H    0.163047
     5  C   -0.163307
     6  H    0.163047
     7  C   -0.163307
     8  H    0.163047
     9  C   -0.163307
    10  H    0.163047
    11  C   -0.162651
    12  H    0.163825
    13  C   -0.165796
    14  C   -0.162879
    15  H    0.161242
    16  H    0.174175
    17  C   -0.162192
    18  H    0.160141
    19  C   -0.162648
    20  H    0.160338
    21  C   -0.162192
    22  H    0.160141
    23  C   -0.162879
    24  H    0.161242
 Sum of Mulliken charges =   0.00000

 Dipole moment (field-independent basis, Debye):
    X=              0.0000    Y=              0.0000    Z=             -0.1764  Tot=              0.1764
 Quadrupole moment (field-independent basis, Debye-Ang):
   XX=            -70.0793   YY=            -62.4240   ZZ=            -70.5846
   XY=              0.0000   XZ=              0.0000   YZ=              0.0000

 Normal termination of Gaussian 09 at Sun Mar 19 00:55:22 2017.
