 Gaussian 09, Revision D.01,
 Gaussian 09:  EM64L-G09RevD.01 24-Apr-2013

 ------------
 #p hf 6-31g*
 ------------

 ---------------------
 benzene dimer 1.90425
 ---------------------
 Symbolic Z-matrix:
 Charge =  0 Multiplicity = 1

                         Standard orientation:
 ---------------------------------------------------------------------
 Center     Atomic      Atomic             Coordinates (Angstroms)
 Number     Number       Type             X           Y           Z
 ---------------------------------------------------------------------
      1          6           0       -1.391500    0.000000   -2.200000
      2          1           0       -2.471500    0.000000   -2.200000
      3          6           0       -0.695750    1.205074   -2.200000
      4          1           0       -1.235750    2.140382   -2.200000
      5          6           0       -0.695750   -1.205074   -2.200000
      6          1           0       -1.235750   -2.140382   -2.200000
      7          6           0        0.695750    1.205074   -2.200000
      8          1           0        1.235750    2.140382   -2.200000
      9          6           0        0.695750   -1.205074   -2.200000
     10          1           0        1.235750   -2.140382   -2.200000
     11          6           0        1.391500    0.000000   -2.200000
     12          1           0        2.471500    0.000000   -2.200000
     13          6           0        0.000000    0.000000    0.808500
     14          6           0        0.000000   -1.205074    1.504250
     15          1           0        0.000000   -2.140382    0.964250
     16          1           0        0.000000    0.000000   -0.271500
     17          6           0        0.000000   -1.205074    2.895750
     18          1           0        0.000000   -2.140382    3.435750
     19          6           0        0.000000    0.000000    3.591500
     20          1           0        0.000000    0.000000    4.671500
     21          6           0        0.000000    1.205074    2.895750
     22          1           0        0.000000    2.140382    3.435750
     23          6           0        0.000000    1.205074    1.504250
     24          1           0        0.000000    2.140382    0.964250
 ---------------------------------------------------------------------

 SCF Done:  E(RHF) =  -461.392603992     A.U. after   12 cycles

 The electronic state is 1-A1.
 Alpha  occ. eigenvalues --  -11.23928 -11.23877 -11.23862 -11.23755 -11.23739
 Alpha  occ. eigenvalues --  -11.23688 -11.22069 -11.22029 -11.21857 -11.21640
 Alpha  occ. eigenvalues --  -11.21631 -11.20885  -1.15631  -1.13199  -1.01853
 Alpha  occ. eigenvalues --   -1.01793  -0.99752  -0.99604  -0.82622  -0.82621
 Alpha  occ. eigenvalues --   -0.80664  -0.80634  -0.71397  -0.69387  -0.64619
 Alpha  occ. eigenvalues --   -0.62959  -0.61998  -0.59926  -0.59127  -0.59072
 Alpha  occ. eigenvalues --   -0.57917  -0.57166  -0.50500  -0.49665  -0.49633
 Alpha  occ. eigenvalues --   -0.48417  -0.47721  -0.45740  -0.34446  -0.34055
 Alpha  occ. eigenvalues --   -0.31919  -0.31106
 Alpha virt. eigenvalues --    0.13564   0.13807   0.16182   0.16235   0.22521
 Alpha virt. eigenvalues --    0.25301   0.27834   0.28900   0.30797   0.31021
 Alpha virt. eigenvalues --    0.32696   0.33228   0.33352   0.34435   0.34504

 Mulliken charges:
               1
     1  C   -0.196789
     2  H    0.207807
     3  C   -0.205432
     4  H    0.206029
     5  C   -0.205432
     6  H    0.206029
     7  C   -0.205432
     8  H    0.206029
     9  C   -0.205432
    10  H    0.206029
    11  C   -0.196789
    12  H    0.207807
    13  C   -0.153253
    14  C   -0.217970
    15  H    0.188401
    16  H    0.212100
    17  C   -0.198285
    18  H    0.192608
    19  C   -0.205824
    20  H    0.193046
    21  C   -0.198285
    22  H    0.192608
    23  C   -0.217970
    24  H    0.188401
 Sum of Mulliken charges =   0.00000

 Dipole moment (field-independent basis, Debye):
    X=              0.0000    Y=              0.0000    Z=             -0.8687  Tot=              0.8687
 Quadrupole moment (field-independent basis, Debye-Ang):
   XX=            -70.6974   YY=            -63.1390   ZZ=            -72.4821
   XY=              0.0000   XZ=              0.0000   YZ=              0.0000

 Normal termination of Gaussian 09 at Sun Mar 19 00:40:58 2017.
