 Gaussian 09, Revision D.01,
 Gaussian 09:  EM64L-G09RevD.01 24-Apr-2013

 ----------------------------------------------
 #p b3lyp empiricaldispersion=gd3bj jun-cc-pVTZ
 ----------------------------------------------

 ----------------------------
 benzene dimer 2.495750000000
 ----------------------------
 Symbolic Z-matrix:
 Charge =  0 Multiplicity = 1

                         Standard orientation:
 ---------------------------------------------------------------------
 Center     Atomic      Atomic             Coordinates (Angstroms)
 Number     Number       Type             X           Y           Z
 ---------------------------------------------------------------------
      1          6           0       -1.391500    0.000000   -2.495750
      2          1           0       -2.471500    0.000000   -2.495750
      3          6           0       -0.695750    1.205074   -2.495750
      4          1           0       -1.235750    2.140382   -2.495750
      5          6           0       -0.695750   -1.205074   -2.495750
      6          1           0       -1.235750   -2.140382   -2.495750
      7          6           0        0.695750    1.205074   -2.495750
      8          1           0        1.235750    2.140382   -2.495750
      9          6           0        0.695750   -1.205074   -2.495750
     10          1           0        1.235750   -2.140382   -2.495750
     11          6           0        1.391500    0.000000   -2.495750
     12          1           0        2.471500    0.000000   -2.495750
     13          6           0        0.000000    0.000000    1.104250
     14          6           0        0.000000   -1.205074    1.800000
     15          1           0        0.000000   -2.140382    1.260000
     16          1           0        0.000000    0.000000    0.024250
     17          6           0        0.000000   -1.205074    3.191500
     18          1           0        0.000000   -2.140382    3.731500
     19          6           0        0.000000    0.000000    3.887250
     20          1           0        0.000000    0.000000    4.967250
     21          6           0        0.000000    1.205074    3.191500
     22          1           0        0.000000    2.140382    3.731500
     23          6           0        0.000000    1.205074    1.800000
     24          1           0        0.000000    2.140382    1.260000
 ---------------------------------------------------------------------

 SCF Done:  E(RB3LYP) =  -464.711584999     A.U. after   10 cycles

 The electronic state is 1-A1.
 Alpha  occ. eigenvalues --  -10.18478 -10.18456 -10.18446 -10.18396 -10.18386
 Alpha  occ. eigenvalues --  -10.18364 -10.17467 -10.17434 -10.17386 -10.17302
 Alpha  occ. eigenvalues --  -10.17297 -10.17017  -0.86444  -0.85292  -0.75543
 Alpha  occ. eigenvalues --   -0.75518  -0.74466  -0.74381  -0.61177  -0.61173
 Alpha  occ. eigenvalues --   -0.60119  -0.60077  -0.53375  -0.52313  -0.46949
 Alpha  occ. eigenvalues --   -0.45945  -0.45651  -0.44556  -0.43117  -0.43087
 Alpha  occ. eigenvalues --   -0.42168  -0.42095  -0.37785  -0.36762  -0.35357
 Alpha  occ. eigenvalues --   -0.35337  -0.34327  -0.33984  -0.26619  -0.26544
 Alpha  occ. eigenvalues --   -0.25427  -0.25210
 Alpha virt. eigenvalues --   -0.02325  -0.02188  -0.01042  -0.00987  -0.00761
 Alpha virt. eigenvalues --    0.00486   0.00649   0.01209   0.02271   0.02569
 Alpha virt. eigenvalues --    0.03254   0.03325   0.04463   0.04526   0.04821

 Mulliken charges:
               1
     1  C   -0.140459
     2  H    0.122727
     3  C   -0.125793
     4  H    0.122776
     5  C   -0.125793
     6  H    0.122776
     7  C   -0.125793
     8  H    0.122776
     9  C   -0.125793
    10  H    0.122776
    11  C   -0.140459
    12  H    0.122727
    13  C    0.161022
    14  C   -0.190823
    15  H    0.116686
    16  H    0.084034
    17  C   -0.134497
    18  H    0.117822
    19  C   -0.117644
    20  H    0.101745
    21  C   -0.134497
    22  H    0.117822
    23  C   -0.190823
    24  H    0.116686
 Sum of Mulliken charges =   0.00000

 Dipole moment (field-independent basis, Debye):
    X=              0.0000    Y=              0.0000    Z=             -0.4944  Tot=              0.4944
 Quadrupole moment (field-independent basis, Debye-Ang):
   XX=            -71.9715   YY=            -64.9853   ZZ=            -73.0200
   XY=              0.0000   XZ=              0.0000   YZ=              0.0000

 Normal termination of Gaussian 09 at Sun Mar 19 01:17:53 2017.
