 Gaussian 09, Revision D.01,
 Gaussian 09:  EM64L-G09RevD.01 24-Apr-2013

 -------------
 #p mp2 6-31g*
 -------------

 ---------------------
 benzene dimer 2.10425
 ---------------------
 Symbolic Z-matrix:
 Charge =  0 Multiplicity = 1

                         Standard orientation:
 ---------------------------------------------------------------------
 Center     Atomic      Atomic             Coordinates (Angstroms)
 Number     Number       Type             X           Y           Z
 ---------------------------------------------------------------------
      1          6           0       -1.391500    0.000000   -2.300000
      2          1           0       -2.471500    0.000000   -2.300000
      3          6           0       -0.695750    1.205074   -2.300000
      4          1           0       -1.235750    2.140382   -2.300000
      5          6           0       -0.695750   -1.205074   -2.300000
      6          1           0       -1.235750   -2.140382   -2.300000
      7          6           0        0.695750    1.205074   -2.300000
      8          1           0        1.235750    2.140382   -2.300000
      9          6           0        0.695750   -1.205074   -2.300000
     10          1           0        1.235750   -2.140382   -2.300000
     11          6           0        1.391500    0.000000   -2.300000
     12          1           0        2.471500    0.000000   -2.300000
     13          6           0        0.000000    0.000000    0.908500
     14          6           0        0.000000   -1.205074    1.604250
     15          1           0        0.000000   -2.140382    1.064250
     16          1           0        0.000000    0.000000   -0.171500
     17          6           0        0.000000   -1.205074    2.995750
     18          1           0        0.000000   -2.140382    3.535750
     19          6           0        0.000000    0.000000    3.691500
     20          1           0        0.000000    0.000000    4.771500
     21          6           0        0.000000    1.205074    2.995750
     22          1           0        0.000000    2.140382    3.535750
     23          6           0        0.000000    1.205074    1.604250
     24          1           0        0.000000    2.140382    1.064250
 ---------------------------------------------------------------------

 SCF Done:  E(RHF) =  -461.399808365     A.U. after   12 cycles
 E2 =    -0.1519093960D+01 EUMP2 =    -0.46291890232478D+03

 The electronic state is 1-A1.
 Alpha  occ. eigenvalues --  -11.23846 -11.23797 -11.23778 -11.23674 -11.23654
 Alpha  occ. eigenvalues --  -11.23605 -11.22205 -11.22157 -11.22016 -11.21845
 Alpha  occ. eigenvalues --  -11.21834 -11.21251  -1.15390  -1.13376  -1.01708
 Alpha  occ. eigenvalues --   -1.01659  -0.99907  -0.99768  -0.82521  -0.82517
 Alpha  occ. eigenvalues --   -0.80786  -0.80771  -0.71206  -0.69470  -0.64539
 Alpha  occ. eigenvalues --   -0.63005  -0.61897  -0.60089  -0.59001  -0.58951
 Alpha  occ. eigenvalues --   -0.57707  -0.57308  -0.50529  -0.49568  -0.49539
 Alpha  occ. eigenvalues --   -0.48556  -0.47877  -0.46484  -0.34114  -0.33883
 Alpha  occ. eigenvalues --   -0.32048  -0.31465
 Alpha virt. eigenvalues --    0.13832   0.13968   0.15981   0.15981   0.22716
 Alpha virt. eigenvalues --    0.25032   0.28116   0.28966   0.30571   0.31012
 Alpha virt. eigenvalues --    0.32759   0.33148   0.33285   0.34107   0.34277

 Mulliken charges:
               1
     1  C   -0.198439
     2  H    0.206684
     3  C   -0.205555
     4  H    0.205026
     5  C   -0.205555
     6  H    0.205026
     7  C   -0.205555
     8  H    0.205026
     9  C   -0.205555
    10  H    0.205026
    11  C   -0.198439
    12  H    0.206684
    13  C   -0.182815
    14  C   -0.214737
    15  H    0.190920
    16  H    0.236707
    17  C   -0.198715
    18  H    0.193620
    19  C   -0.204480
    20  H    0.194034
    21  C   -0.198715
    22  H    0.193620
    23  C   -0.214737
    24  H    0.190920
 Sum of Mulliken charges =   0.00000

 Dipole moment (field-independent basis, Debye):
    X=              0.0000    Y=              0.0000    Z=             -0.7575  Tot=              0.7575
 Quadrupole moment (field-independent basis, Debye-Ang):
   XX=            -70.7966   YY=            -63.0681   ZZ=            -72.2477
   XY=              0.0000   XZ=              0.0000   YZ=              0.0000

 Normal termination of Gaussian 09 at Sun Mar 19 00:42:36 2017.
