 Gaussian 09, Revision D.01,
 Gaussian 09:  EM64L-G09RevD.01 24-Apr-2013

 ------------------------------------------------
 #p pbe1pbe empiricaldispersion=gd3bj may-cc-pVQZ
 ------------------------------------------------

 ---------------------
 benzene dimer 1.90425
 ---------------------
 Symbolic Z-matrix:
 Charge =  0 Multiplicity = 1

                         Standard orientation:
 ---------------------------------------------------------------------
 Center     Atomic      Atomic             Coordinates (Angstroms)
 Number     Number       Type             X           Y           Z
 ---------------------------------------------------------------------
      1          6           0       -1.391500    0.000000   -2.200000
      2          1           0       -2.471500    0.000000   -2.200000
      3          6           0       -0.695750    1.205074   -2.200000
      4          1           0       -1.235750    2.140382   -2.200000
      5          6           0       -0.695750   -1.205074   -2.200000
      6          1           0       -1.235750   -2.140382   -2.200000
      7          6           0        0.695750    1.205074   -2.200000
      8          1           0        1.235750    2.140382   -2.200000
      9          6           0        0.695750   -1.205074   -2.200000
     10          1           0        1.235750   -2.140382   -2.200000
     11          6           0        1.391500    0.000000   -2.200000
     12          1           0        2.471500    0.000000   -2.200000
     13          6           0        0.000000    0.000000    0.808500
     14          6           0        0.000000   -1.205074    1.504250
     15          1           0        0.000000   -2.140382    0.964250
     16          1           0        0.000000    0.000000   -0.271500
     17          6           0        0.000000   -1.205074    2.895750
     18          1           0        0.000000   -2.140382    3.435750
     19          6           0        0.000000    0.000000    3.591500
     20          1           0        0.000000    0.000000    4.671500
     21          6           0        0.000000    1.205074    2.895750
     22          1           0        0.000000    2.140382    3.435750
     23          6           0        0.000000    1.205074    1.504250
     24          1           0        0.000000    2.140382    0.964250
 ---------------------------------------------------------------------

 SCF Done:  E(RPBE1PBE) =  -464.131184864     A.U. after   10 cycles

 The electronic state is 1-A1.
 Alpha  occ. eigenvalues --  -10.23534 -10.23506 -10.23498 -10.23441 -10.23433
 Alpha  occ. eigenvalues --  -10.23405 -10.21911 -10.21886 -10.21809 -10.21650
 Alpha  occ. eigenvalues --  -10.21647 -10.21013  -0.89268  -0.87205  -0.77902
 Alpha  occ. eigenvalues --   -0.77856  -0.76122  -0.75982  -0.63045  -0.63042
 Alpha  occ. eigenvalues --   -0.61346  -0.61336  -0.55114  -0.53389  -0.48320
 Alpha  occ. eigenvalues --   -0.47051  -0.46925  -0.45282  -0.44356  -0.44308
 Alpha  occ. eigenvalues --   -0.43547  -0.42694  -0.38491  -0.37641  -0.36327
 Alpha  occ. eigenvalues --   -0.36296  -0.34665  -0.33591  -0.28090  -0.27768
 Alpha  occ. eigenvalues --   -0.25917  -0.25348
 Alpha virt. eigenvalues --   -0.02097  -0.01795  -0.00261   0.00112   0.00238
 Alpha virt. eigenvalues --    0.01136   0.01220   0.01674   0.02928   0.03067
 Alpha virt. eigenvalues --    0.03483   0.03672   0.04642   0.04987   0.05384

 Mulliken charges:
               1
     1  C   -0.173627
     2  H    0.154552
     3  C   -0.139406
     4  H    0.162651
     5  C   -0.139406
     6  H    0.162651
     7  C   -0.139406
     8  H    0.162651
     9  C   -0.139406
    10  H    0.162651
    11  C   -0.173627
    12  H    0.154552
    13  C   -0.590766
    14  C   -0.109399
    15  H    0.207996
    16  H    0.183096
    17  C   -0.128003
    18  H    0.179494
    19  C   -0.123627
    20  H    0.176291
    21  C   -0.128003
    22  H    0.179494
    23  C   -0.109399
    24  H    0.207996
 Sum of Mulliken charges =   0.00000

 Dipole moment (field-independent basis, Debye):
    X=              0.0000    Y=              0.0000    Z=             -0.8072  Tot=              0.8072
 Quadrupole moment (field-independent basis, Debye-Ang):
   XX=            -70.8969   YY=            -63.8703   ZZ=            -72.7226
   XY=              0.0000   XZ=              0.0000   YZ=              0.0000

 Normal termination of Gaussian 09 at Sun Mar 19 04:15:50 2017.
