 Gaussian 09, Revision D.01,
 Gaussian 09:  EM64L-G09RevD.01 24-Apr-2013

 ---------------
 #p b3lyp 6-31g*
 ---------------

 ---------------------
 benzene dimer 2.10425
 ---------------------
 Symbolic Z-matrix:
 Charge =  0 Multiplicity = 1

                         Standard orientation:
 ---------------------------------------------------------------------
 Center     Atomic      Atomic             Coordinates (Angstroms)
 Number     Number       Type             X           Y           Z
 ---------------------------------------------------------------------
      1          6           0       -1.391500    0.000000   -2.300000
      2          1           0       -2.471500    0.000000   -2.300000
      3          6           0       -0.695750    1.205074   -2.300000
      4          1           0       -1.235750    2.140382   -2.300000
      5          6           0       -0.695750   -1.205074   -2.300000
      6          1           0       -1.235750   -2.140382   -2.300000
      7          6           0        0.695750    1.205074   -2.300000
      8          1           0        1.235750    2.140382   -2.300000
      9          6           0        0.695750   -1.205074   -2.300000
     10          1           0        1.235750   -2.140382   -2.300000
     11          6           0        1.391500    0.000000   -2.300000
     12          1           0        2.471500    0.000000   -2.300000
     13          6           0        0.000000    0.000000    0.908500
     14          6           0        0.000000   -1.205074    1.604250
     15          1           0        0.000000   -2.140382    1.064250
     16          1           0        0.000000    0.000000   -0.171500
     17          6           0        0.000000   -1.205074    2.995750
     18          1           0        0.000000   -2.140382    3.535750
     19          6           0        0.000000    0.000000    3.691500
     20          1           0        0.000000    0.000000    4.771500
     21          6           0        0.000000    1.205074    2.995750
     22          1           0        0.000000    2.140382    3.535750
     23          6           0        0.000000    1.205074    1.604250
     24          1           0        0.000000    2.140382    1.064250
 ---------------------------------------------------------------------

 SCF Done:  E(RB3LYP) =  -464.493034390     A.U. after   13 cycles

 The electronic state is 1-A1.
 Alpha  occ. eigenvalues --  -10.19199 -10.19177 -10.19163 -10.19119 -10.19104
 Alpha  occ. eigenvalues --  -10.19083 -10.17636 -10.17603 -10.17556 -10.17393
 Alpha  occ. eigenvalues --  -10.17390 -10.16801  -0.85711  -0.83841  -0.74865
 Alpha  occ. eigenvalues --   -0.74826  -0.73180  -0.73041  -0.60524  -0.60519
 Alpha  occ. eigenvalues --   -0.58896  -0.58841  -0.52776  -0.51137  -0.46566
 Alpha  occ. eigenvalues --   -0.45099  -0.44601  -0.42886  -0.42505  -0.42463
 Alpha  occ. eigenvalues --   -0.41295  -0.40923  -0.36470  -0.35122  -0.34682
 Alpha  occ. eigenvalues --   -0.34659  -0.33090  -0.32278  -0.25658  -0.25525
 Alpha  occ. eigenvalues --   -0.23766  -0.23409
 Alpha virt. eigenvalues --   -0.00352  -0.00286   0.01496   0.01549   0.08601
 Alpha virt. eigenvalues --    0.10663   0.13618   0.14254   0.15717   0.15949
 Alpha virt. eigenvalues --    0.16301   0.17673   0.17960   0.18216   0.18953

 Mulliken charges:
               1
     1  C   -0.125181
     2  H    0.134158
     3  C   -0.130621
     4  H    0.132819
     5  C   -0.130621
     6  H    0.132819
     7  C   -0.130621
     8  H    0.132819
     9  C   -0.130621
    10  H    0.132819
    11  C   -0.125181
    12  H    0.134158
    13  C   -0.102998
    14  C   -0.141681
    15  H    0.117204
    16  H    0.148583
    17  C   -0.129962
    18  H    0.121568
    19  C   -0.128597
    20  H    0.122008
    21  C   -0.129962
    22  H    0.121568
    23  C   -0.141681
    24  H    0.117204
 Sum of Mulliken charges =   0.00000

 Dipole moment (field-independent basis, Debye):
    X=              0.0000    Y=              0.0000    Z=             -0.8063  Tot=              0.8063
 Quadrupole moment (field-independent basis, Debye-Ang):
   XX=            -69.4566   YY=            -63.0953   ZZ=            -70.5615
   XY=              0.0000   XZ=              0.0000   YZ=              0.0000

 Normal termination of Gaussian 09 at Sun Mar 19 00:40:50 2017.
