 Gaussian 09, Revision D.01,
 Gaussian 09:  EM64L-G09RevD.01 24-Apr-2013

 ------------------------------------------
 #p b3lyp empiricaldispersion=gd3bj cc-pVDZ
 ------------------------------------------

 ---------------------
 benzene dimer 5.40425
 ---------------------
 Symbolic Z-matrix:
 Charge =  0 Multiplicity = 1

                         Standard orientation:
 ---------------------------------------------------------------------
 Center     Atomic      Atomic             Coordinates (Angstroms)
 Number     Number       Type             X           Y           Z
 ---------------------------------------------------------------------
      1          6           0       -1.391500    0.000000   -3.950000
      2          1           0       -2.471500    0.000000   -3.950000
      3          6           0       -0.695750    1.205074   -3.950000
      4          1           0       -1.235750    2.140382   -3.950000
      5          6           0       -0.695750   -1.205074   -3.950000
      6          1           0       -1.235750   -2.140382   -3.950000
      7          6           0        0.695750    1.205074   -3.950000
      8          1           0        1.235750    2.140382   -3.950000
      9          6           0        0.695750   -1.205074   -3.950000
     10          1           0        1.235750   -2.140382   -3.950000
     11          6           0        1.391500    0.000000   -3.950000
     12          1           0        2.471500    0.000000   -3.950000
     13          6           0        0.000000    0.000000    2.558500
     14          6           0        0.000000   -1.205074    3.254250
     15          1           0        0.000000   -2.140382    2.714250
     16          1           0        0.000000    0.000000    1.478500
     17          6           0        0.000000   -1.205074    4.645750
     18          1           0        0.000000   -2.140382    5.185750
     19          6           0        0.000000    0.000000    5.341500
     20          1           0        0.000000    0.000000    6.421500
     21          6           0        0.000000    1.205074    4.645750
     22          1           0        0.000000    2.140382    5.185750
     23          6           0        0.000000    1.205074    3.254250
     24          1           0        0.000000    2.140382    2.714250
 ---------------------------------------------------------------------

 SCF Done:  E(RB3LYP) =  -464.562303149     A.U. after   12 cycles

 The electronic state is 1-A1.
 Alpha  occ. eigenvalues --  -10.18910 -10.18888 -10.18887 -10.18838 -10.18836
 Alpha  occ. eigenvalues --  -10.18814 -10.18685 -10.18661 -10.18646 -10.18606
 Alpha  occ. eigenvalues --  -10.18606 -10.18566  -0.85633  -0.85399  -0.74808
 Alpha  occ. eigenvalues --   -0.74806  -0.74579  -0.74567  -0.60433  -0.60432
 Alpha  occ. eigenvalues --   -0.60203  -0.60195  -0.52473  -0.52240  -0.46260
 Alpha  occ. eigenvalues --   -0.46028  -0.44702  -0.44469  -0.42264  -0.42260
 Alpha  occ. eigenvalues --   -0.42040  -0.42017  -0.36860  -0.36625  -0.34477
 Alpha  occ. eigenvalues --   -0.34474  -0.34251  -0.34233  -0.25462  -0.25459
 Alpha  occ. eigenvalues --   -0.25232  -0.25220
 Alpha virt. eigenvalues --   -0.00562  -0.00560  -0.00333  -0.00322   0.05906
 Alpha virt. eigenvalues --    0.06169   0.09906   0.09920   0.10102   0.10199
 Alpha virt. eigenvalues --    0.13438   0.13445   0.13640   0.13718   0.15327

 Mulliken charges:
               1
     1  C    0.036139
     2  H   -0.035868
     3  C    0.035984
     4  H   -0.036108
     5  C    0.035984
     6  H   -0.036108
     7  C    0.035984
     8  H   -0.036108
     9  C    0.035984
    10  H   -0.036108
    11  C    0.036139
    12  H   -0.035868
    13  C    0.035169
    14  C    0.035989
    15  H   -0.036411
    16  H   -0.031624
    17  C    0.036168
    18  H   -0.037041
    19  C    0.036027
    20  H   -0.037030
    21  C    0.036168
    22  H   -0.037041
    23  C    0.035989
    24  H   -0.036411
 Sum of Mulliken charges =   0.00000

 Dipole moment (field-independent basis, Debye):
    X=              0.0000    Y=              0.0000    Z=             -0.0655  Tot=              0.0655
 Quadrupole moment (field-independent basis, Debye-Ang):
   XX=            -70.8988   YY=            -64.0924   ZZ=            -71.2069
   XY=              0.0000   XZ=              0.0000   YZ=              0.0000

 Normal termination of Gaussian 09 at Sun Mar 19 01:00:16 2017.
