 Gaussian 09, Revision D.01,
 Gaussian 09:  EM64L-G09RevD.01 24-Apr-2013

 ---------------
 #p m062x 6-31g*
 ---------------

 ---------------------
 benzene dimer 2.60425
 ---------------------
 Symbolic Z-matrix:
 Charge =  0 Multiplicity = 1

                         Standard orientation:
 ---------------------------------------------------------------------
 Center     Atomic      Atomic             Coordinates (Angstroms)
 Number     Number       Type             X           Y           Z
 ---------------------------------------------------------------------
      1          6           0       -1.391500    0.000000   -2.550000
      2          1           0       -2.471500    0.000000   -2.550000
      3          6           0       -0.695750    1.205074   -2.550000
      4          1           0       -1.235750    2.140382   -2.550000
      5          6           0       -0.695750   -1.205074   -2.550000
      6          1           0       -1.235750   -2.140382   -2.550000
      7          6           0        0.695750    1.205074   -2.550000
      8          1           0        1.235750    2.140382   -2.550000
      9          6           0        0.695750   -1.205074   -2.550000
     10          1           0        1.235750   -2.140382   -2.550000
     11          6           0        1.391500    0.000000   -2.550000
     12          1           0        2.471500    0.000000   -2.550000
     13          6           0        0.000000    0.000000    1.158500
     14          6           0        0.000000   -1.205074    1.854250
     15          1           0        0.000000   -2.140382    1.314250
     16          1           0        0.000000    0.000000    0.078500
     17          6           0        0.000000   -1.205074    3.245750
     18          1           0        0.000000   -2.140382    3.785750
     19          6           0        0.000000    0.000000    3.941500
     20          1           0        0.000000    0.000000    5.021500
     21          6           0        0.000000    1.205074    3.245750
     22          1           0        0.000000    2.140382    3.785750
     23          6           0        0.000000    1.205074    1.854250
     24          1           0        0.000000    2.140382    1.314250
 ---------------------------------------------------------------------

 SCF Done:  E(RM062X) =  -464.276505654     A.U. after   13 cycles

 The electronic state is 1-A1.
 Alpha  occ. eigenvalues --  -10.55138 -10.55108 -10.55094 -10.55030 -10.55013
 Alpha  occ. eigenvalues --  -10.54983 -10.54063 -10.54016 -10.53960 -10.53879
 Alpha  occ. eigenvalues --  -10.53871 -10.53582  -0.95764  -0.94576  -0.84134
 Alpha  occ. eigenvalues --   -0.84108  -0.83018  -0.82919  -0.68466  -0.68461
 Alpha  occ. eigenvalues --   -0.67363  -0.67306  -0.60024  -0.58908  -0.53446
 Alpha  occ. eigenvalues --   -0.52377  -0.50875  -0.49727  -0.48765  -0.48732
 Alpha  occ. eigenvalues --   -0.47742  -0.47706  -0.43467  -0.42422  -0.40134
 Alpha  occ. eigenvalues --   -0.40117  -0.39060  -0.38763  -0.30483  -0.30463
 Alpha  occ. eigenvalues --   -0.29309  -0.29140
 Alpha virt. eigenvalues --    0.03503   0.03525   0.04696   0.04736   0.13364
 Alpha virt. eigenvalues --    0.14442   0.18918   0.19272   0.20056   0.20147
 Alpha virt. eigenvalues --    0.21420   0.22570   0.22798   0.22846   0.23539

 Mulliken charges:
               1
     1  C   -0.161005
     2  H    0.166740
     3  C   -0.164927
     4  H    0.165306
     5  C   -0.164927
     6  H    0.165306
     7  C   -0.164927
     8  H    0.165306
     9  C   -0.164927
    10  H    0.165306
    11  C   -0.161005
    12  H    0.166740
    13  C   -0.142754
    14  C   -0.165347
    15  H    0.155463
    16  H    0.164940
    17  C   -0.163444
    18  H    0.158036
    19  C   -0.162968
    20  H    0.158380
    21  C   -0.163444
    22  H    0.158036
    23  C   -0.165347
    24  H    0.155463
 Sum of Mulliken charges =   0.00000

 Dipole moment (field-independent basis, Debye):
    X=              0.0000    Y=              0.0000    Z=             -0.4779  Tot=              0.4779
 Quadrupole moment (field-independent basis, Debye-Ang):
   XX=            -69.8907   YY=            -62.5212   ZZ=            -70.5519
   XY=              0.0000   XZ=              0.0000   YZ=              0.0000

 Normal termination of Gaussian 09 at Sun Mar 19 00:46:34 2017.
