 Gaussian 09, Revision D.01,
 Gaussian 09:  EM64L-G09RevD.01 24-Apr-2013

 ------------------------------------------
 #p b3lyp empiricaldispersion=gd3bj cc-pVDZ
 ------------------------------------------

 ---------------------
 benzene dimer 4.90425
 ---------------------
 Symbolic Z-matrix:
 Charge =  0 Multiplicity = 1

                         Standard orientation:
 ---------------------------------------------------------------------
 Center     Atomic      Atomic             Coordinates (Angstroms)
 Number     Number       Type             X           Y           Z
 ---------------------------------------------------------------------
      1          6           0       -1.391500    0.000000   -3.700000
      2          1           0       -2.471500    0.000000   -3.700000
      3          6           0       -0.695750    1.205074   -3.700000
      4          1           0       -1.235750    2.140382   -3.700000
      5          6           0       -0.695750   -1.205074   -3.700000
      6          1           0       -1.235750   -2.140382   -3.700000
      7          6           0        0.695750    1.205074   -3.700000
      8          1           0        1.235750    2.140382   -3.700000
      9          6           0        0.695750   -1.205074   -3.700000
     10          1           0        1.235750   -2.140382   -3.700000
     11          6           0        1.391500    0.000000   -3.700000
     12          1           0        2.471500    0.000000   -3.700000
     13          6           0        0.000000    0.000000    2.308500
     14          6           0        0.000000   -1.205074    3.004250
     15          1           0        0.000000   -2.140382    2.464250
     16          1           0        0.000000    0.000000    1.228500
     17          6           0        0.000000   -1.205074    4.395750
     18          1           0        0.000000   -2.140382    4.935750
     19          6           0        0.000000    0.000000    5.091500
     20          1           0        0.000000    0.000000    6.171500
     21          6           0        0.000000    1.205074    4.395750
     22          1           0        0.000000    2.140382    4.935750
     23          6           0        0.000000    1.205074    3.004250
     24          1           0        0.000000    2.140382    2.464250
 ---------------------------------------------------------------------

 SCF Done:  E(RB3LYP) =  -464.562505723     A.U. after   12 cycles

 The electronic state is 1-A1.
 Alpha  occ. eigenvalues --  -10.18932 -10.18910 -10.18909 -10.18860 -10.18858
 Alpha  occ. eigenvalues --  -10.18836 -10.18653 -10.18628 -10.18608 -10.18573
 Alpha  occ. eigenvalues --  -10.18570 -10.18521  -0.85656  -0.85363  -0.74830
 Alpha  occ. eigenvalues --   -0.74827  -0.74546  -0.74529  -0.60454  -0.60452
 Alpha  occ. eigenvalues --   -0.60168  -0.60157  -0.52493  -0.52203  -0.46279
 Alpha  occ. eigenvalues --   -0.45991  -0.44724  -0.44433  -0.42285  -0.42280
 Alpha  occ. eigenvalues --   -0.42007  -0.41976  -0.36886  -0.36591  -0.34497
 Alpha  occ. eigenvalues --   -0.34494  -0.34217  -0.34192  -0.25485  -0.25481
 Alpha  occ. eigenvalues --   -0.25200  -0.25183
 Alpha virt. eigenvalues --   -0.00584  -0.00581  -0.00300  -0.00286   0.05848
 Alpha virt. eigenvalues --    0.06240   0.09883   0.09909   0.10134   0.10265
 Alpha virt. eigenvalues --    0.13423   0.13432   0.13669   0.13774   0.15306

 Mulliken charges:
               1
     1  C    0.036108
     2  H   -0.035675
     3  C    0.035838
     4  H   -0.035988
     5  C    0.035838
     6  H   -0.035988
     7  C    0.035838
     8  H   -0.035988
     9  C    0.035838
    10  H   -0.035988
    11  C    0.036108
    12  H   -0.035675
    13  C    0.034272
    14  C    0.035851
    15  H   -0.036513
    16  H   -0.029733
    17  C    0.036119
    18  H   -0.037232
    19  C    0.035946
    20  H   -0.037199
    21  C    0.036119
    22  H   -0.037232
    23  C    0.035851
    24  H   -0.036513
 Sum of Mulliken charges =   0.00000

 Dipole moment (field-independent basis, Debye):
    X=              0.0000    Y=              0.0000    Z=             -0.0894  Tot=              0.0894
 Quadrupole moment (field-independent basis, Debye-Ang):
   XX=            -70.8887   YY=            -64.1009   ZZ=            -71.2426
   XY=              0.0000   XZ=              0.0000   YZ=              0.0000

 Normal termination of Gaussian 09 at Sun Mar 19 00:57:52 2017.
