 Gaussian 09, Revision D.01,
 Gaussian 09:  EM64L-G09RevD.01 24-Apr-2013

 ------------------------------------------
 #p b3lyp empiricaldispersion=gd3bj cc-pVQZ
 ------------------------------------------

 ---------------------
 benzene dimer 1.90425
 ---------------------
 Symbolic Z-matrix:
 Charge =  0 Multiplicity = 1

                         Standard orientation:
 ---------------------------------------------------------------------
 Center     Atomic      Atomic             Coordinates (Angstroms)
 Number     Number       Type             X           Y           Z
 ---------------------------------------------------------------------
      1          6           0       -1.391500    0.000000   -2.200000
      2          1           0       -2.471500    0.000000   -2.200000
      3          6           0       -0.695750    1.205074   -2.200000
      4          1           0       -1.235750    2.140382   -2.200000
      5          6           0       -0.695750   -1.205074   -2.200000
      6          1           0       -1.235750   -2.140382   -2.200000
      7          6           0        0.695750    1.205074   -2.200000
      8          1           0        1.235750    2.140382   -2.200000
      9          6           0        0.695750   -1.205074   -2.200000
     10          1           0        1.235750   -2.140382   -2.200000
     11          6           0        1.391500    0.000000   -2.200000
     12          1           0        2.471500    0.000000   -2.200000
     13          6           0        0.000000    0.000000    0.808500
     14          6           0        0.000000   -1.205074    1.504250
     15          1           0        0.000000   -2.140382    0.964250
     16          1           0        0.000000    0.000000   -0.271500
     17          6           0        0.000000   -1.205074    2.895750
     18          1           0        0.000000   -2.140382    3.435750
     19          6           0        0.000000    0.000000    3.591500
     20          1           0        0.000000    0.000000    4.671500
     21          6           0        0.000000    1.205074    2.895750
     22          1           0        0.000000    2.140382    3.435750
     23          6           0        0.000000    1.205074    1.504250
     24          1           0        0.000000    2.140382    0.964250
 ---------------------------------------------------------------------

 SCF Done:  E(RB3LYP) =  -464.736771256     A.U. after   15 cycles

 The electronic state is 1-A1.
 Alpha  occ. eigenvalues --  -10.18305 -10.18279 -10.18272 -10.18218 -10.18211
 Alpha  occ. eigenvalues --  -10.18185 -10.16738 -10.16715 -10.16641 -10.16478
 Alpha  occ. eigenvalues --  -10.16476 -10.15839  -0.86765  -0.84754  -0.75727
 Alpha  occ. eigenvalues --   -0.75683  -0.73991  -0.73860  -0.61322  -0.61320
 Alpha  occ. eigenvalues --   -0.59675  -0.59666  -0.53655  -0.51987  -0.47091
 Alpha  occ. eigenvalues --   -0.45812  -0.45733  -0.44093  -0.43323  -0.43279
 Alpha  occ. eigenvalues --   -0.42447  -0.41706  -0.37321  -0.36353  -0.35527
 Alpha  occ. eigenvalues --   -0.35499  -0.33914  -0.32808  -0.27147  -0.26821
 Alpha  occ. eigenvalues --   -0.25028  -0.24465
 Alpha virt. eigenvalues --   -0.02524  -0.02267  -0.00339  -0.00259   0.01783
 Alpha virt. eigenvalues --    0.03951   0.04087   0.05066   0.06711   0.06805
 Alpha virt. eigenvalues --    0.07800   0.08547   0.10726   0.10748   0.11092

 Mulliken charges:
               1
     1  C   -0.111797
     2  H    0.116357
     3  C   -0.128318
     4  H    0.120709
     5  C   -0.128318
     6  H    0.120709
     7  C   -0.128318
     8  H    0.120709
     9  C   -0.128318
    10  H    0.120709
    11  C   -0.111797
    12  H    0.116357
    13  C   -0.142522
    14  C   -0.136028
    15  H    0.105363
    16  H    0.228922
    17  C   -0.110169
    18  H    0.110035
    19  C   -0.115495
    20  H    0.112007
    21  C   -0.110169
    22  H    0.110035
    23  C   -0.136028
    24  H    0.105363
 Sum of Mulliken charges =   0.00000

 Dipole moment (field-independent basis, Debye):
    X=              0.0000    Y=              0.0000    Z=             -0.7684  Tot=              0.7684
 Quadrupole moment (field-independent basis, Debye-Ang):
   XX=            -71.3607   YY=            -64.8146   ZZ=            -73.1686
   XY=              0.0000   XZ=              0.0000   YZ=              0.0000

 Normal termination of Gaussian 09 at Sun Mar 19 02:44:08 2017.
