 Gaussian 09, Revision D.01,
 Gaussian 09:  EM64L-G09RevD.01 24-Apr-2013

 ----------------------------------------------
 #p b3lyp empiricaldispersion=gd3bj jul-cc-pVDZ
 ----------------------------------------------

 ---------------
 benzene monomer
 ---------------
 Symbolic Z-matrix:
 Charge =  0 Multiplicity = 1

                         Standard orientation:
 ---------------------------------------------------------------------
 Center     Atomic      Atomic             Coordinates (Angstroms)
 Number     Number       Type             X           Y           Z
 ---------------------------------------------------------------------
      1          6           0        0.000000    1.391500    0.000000
      2          1           0        0.000000    2.471500    0.000000
      3          6           0        1.205074    0.695750    0.000000
      4          1           0        2.140382    1.235750    0.000000
      5          6           0       -1.205074    0.695750    0.000000
      6          1           0       -2.140382    1.235750    0.000000
      7          6           0        1.205074   -0.695750    0.000000
      8          1           0        2.140382   -1.235750    0.000000
      9          6           0       -1.205074   -0.695750    0.000000
     10          1           0       -2.140382   -1.235750    0.000000
     11          6           0        0.000000   -1.391500    0.000000
     12          1           0        0.000000   -2.471500    0.000000
 ---------------------------------------------------------------------

 SCF Done:  E(RB3LYP) =  -232.290036510     A.U. after    8 cycles

 The electronic state is 1-A1G.
 Alpha  occ. eigenvalues --  -10.19289 -10.19270 -10.19270 -10.19215 -10.19215
 Alpha  occ. eigenvalues --  -10.19189  -0.86198  -0.75311  -0.75311  -0.60891
 Alpha  occ. eigenvalues --   -0.60891  -0.52959  -0.46615  -0.45236  -0.42692
 Alpha  occ. eigenvalues --   -0.42692  -0.37370  -0.34887  -0.34887  -0.26003
 Alpha  occ. eigenvalues --   -0.26003
 Alpha virt. eigenvalues --   -0.01688  -0.01688   0.00582   0.01821   0.01821
 Alpha virt. eigenvalues --    0.04002   0.04002   0.05622   0.07180   0.07249
 Alpha virt. eigenvalues --    0.08318   0.08318   0.09362   0.11766   0.11766

 Mulliken charges:
               1
     1  C    0.197614
     2  H   -0.197614
     3  C    0.197614
     4  H   -0.197614
     5  C    0.197614
     6  H   -0.197614
     7  C    0.197614
     8  H   -0.197614
     9  C    0.197614
    10  H   -0.197614
    11  C    0.197614
    12  H   -0.197614
 Sum of Mulliken charges =   0.00000

 Dipole moment (field-independent basis, Debye):
    X=              0.0000    Y=              0.0000    Z=              0.0000  Tot=              0.0000
 Quadrupole moment (field-independent basis, Debye-Ang):
   XX=            -32.5472   YY=            -32.5472   ZZ=            -39.8458
   XY=              0.0000   XZ=              0.0000   YZ=              0.0000

 Normal termination of Gaussian 09 at Sun Mar 19 01:02:28 2017.
