 Gaussian 09, Revision D.01,
 Gaussian 09:  EM64L-G09RevD.01 24-Apr-2013

 ----------------------------------------------
 #p b3lyp empiricaldispersion=gd3bj jul-cc-pVDZ
 ----------------------------------------------

 ----------------------------
 benzene dimer 2.495750000000
 ----------------------------
 Symbolic Z-matrix:
 Charge =  0 Multiplicity = 1

                         Standard orientation:
 ---------------------------------------------------------------------
 Center     Atomic      Atomic             Coordinates (Angstroms)
 Number     Number       Type             X           Y           Z
 ---------------------------------------------------------------------
      1          6           0       -1.391500    0.000000   -2.495750
      2          1           0       -2.471500    0.000000   -2.495750
      3          6           0       -0.695750    1.205074   -2.495750
      4          1           0       -1.235750    2.140382   -2.495750
      5          6           0       -0.695750   -1.205074   -2.495750
      6          1           0       -1.235750   -2.140382   -2.495750
      7          6           0        0.695750    1.205074   -2.495750
      8          1           0        1.235750    2.140382   -2.495750
      9          6           0        0.695750   -1.205074   -2.495750
     10          1           0        1.235750   -2.140382   -2.495750
     11          6           0        1.391500    0.000000   -2.495750
     12          1           0        2.471500    0.000000   -2.495750
     13          6           0        0.000000    0.000000    1.104250
     14          6           0        0.000000   -1.205074    1.800000
     15          1           0        0.000000   -2.140382    1.260000
     16          1           0        0.000000    0.000000    0.024250
     17          6           0        0.000000   -1.205074    3.191500
     18          1           0        0.000000   -2.140382    3.731500
     19          6           0        0.000000    0.000000    3.887250
     20          1           0        0.000000    0.000000    4.967250
     21          6           0        0.000000    1.205074    3.191500
     22          1           0        0.000000    2.140382    3.731500
     23          6           0        0.000000    1.205074    1.800000
     24          1           0        0.000000    2.140382    1.260000
 ---------------------------------------------------------------------

 SCF Done:  E(RB3LYP) =  -464.585169408     A.U. after   11 cycles

 The electronic state is 1-A1.
 Alpha  occ. eigenvalues --  -10.19691 -10.19675 -10.19665 -10.19620 -10.19608
 Alpha  occ. eigenvalues --  -10.19587 -10.18677 -10.18650 -10.18605 -10.18515
 Alpha  occ. eigenvalues --  -10.18512 -10.18215  -0.86650  -0.85516  -0.75729
 Alpha  occ. eigenvalues --   -0.75705  -0.74670  -0.74586  -0.61272  -0.61267
 Alpha  occ. eigenvalues --   -0.60230  -0.60189  -0.53341  -0.52297  -0.46959
 Alpha  occ. eigenvalues --   -0.45968  -0.45626  -0.44548  -0.43080  -0.43051
 Alpha  occ. eigenvalues --   -0.42150  -0.42075  -0.37730  -0.36724  -0.35260
 Alpha  occ. eigenvalues --   -0.35241  -0.34246  -0.33907  -0.26570  -0.26490
 Alpha  occ. eigenvalues --   -0.25394  -0.25176
 Alpha virt. eigenvalues --   -0.02248  -0.02109  -0.00981  -0.00921  -0.00305
 Alpha virt. eigenvalues --    0.00977   0.01042   0.01670   0.02799   0.03056
 Alpha virt. eigenvalues --    0.03851   0.03854   0.05210   0.05478   0.05606

 Mulliken charges:
               1
     1  C    0.234690
     2  H   -0.211767
     3  C    0.206372
     4  H   -0.211926
     5  C    0.206372
     6  H   -0.211926
     7  C    0.206372
     8  H   -0.211926
     9  C    0.206372
    10  H   -0.211926
    11  C    0.234690
    12  H   -0.211767
    13  C    0.547203
    14  C    0.238167
    15  H   -0.191602
    16  H   -0.391749
    17  C    0.079703
    18  H   -0.199390
    19  C    0.169713
    20  H   -0.202553
    21  C    0.079703
    22  H   -0.199390
    23  C    0.238167
    24  H   -0.191602
 Sum of Mulliken charges =   0.00000

 Dipole moment (field-independent basis, Debye):
    X=              0.0000    Y=              0.0000    Z=             -0.4921  Tot=              0.4921
 Quadrupole moment (field-independent basis, Debye-Ang):
   XX=            -72.0815   YY=            -65.2749   ZZ=            -73.0934
   XY=              0.0000   XZ=              0.0000   YZ=              0.0000

 1\1\GINC-HOLY2A14108\SP\RB3LYP\Jul-CC-pVDZ\C12H12\ROOT\19-Mar-2017\0\\
 #p b3lyp empiricaldispersion=gd3bj jul-cc-pVDZ\\benzene dimer 2.495750
 000000\\0,1\C,0,1.3915,0.,2.49575\H,0,2.4715,0.,2.49575\C,0,0.69575,1.
 2050743494,2.49575\H,0,1.23575,2.1403817855,2.49575\C,0,0.69575,-1.205
 0743494,2.49575\H,0,1.23575,-2.1403817855,2.49575\C,0,-0.69575,1.20507
 43494,2.49575\H,0,-1.23575,2.1403817855,2.49575\C,0,-0.69575,-1.205074
 3494,2.49575\H,0,-1.23575,-2.1403817855,2.49575\C,0,-1.3915,0.,2.49575
 \H,0,-2.4715,0.,2.49575\C,0,0.,0.,-1.10425\C,0,0.,-1.2050743494,-1.8\H

 Normal termination of Gaussian 09 at Sun Mar 19 01:02:36 2017.
