 Gaussian 09, Revision D.01,
 Gaussian 09:  EM64L-G09RevD.01 24-Apr-2013

 ----------------------------------------------
 #p b3lyp empiricaldispersion=gd3bj may-cc-pVQZ
 ----------------------------------------------

 ---------------------
 benzene dimer 2.00425
 ---------------------
 Symbolic Z-matrix:
 Charge =  0 Multiplicity = 1

                         Standard orientation:
 ---------------------------------------------------------------------
 Center     Atomic      Atomic             Coordinates (Angstroms)
 Number     Number       Type             X           Y           Z
 ---------------------------------------------------------------------
      1          6           0       -1.391500    0.000000   -2.250000
      2          1           0       -2.471500    0.000000   -2.250000
      3          6           0       -0.695750    1.205074   -2.250000
      4          1           0       -1.235750    2.140382   -2.250000
      5          6           0       -0.695750   -1.205074   -2.250000
      6          1           0       -1.235750   -2.140382   -2.250000
      7          6           0        0.695750    1.205074   -2.250000
      8          1           0        1.235750    2.140382   -2.250000
      9          6           0        0.695750   -1.205074   -2.250000
     10          1           0        1.235750   -2.140382   -2.250000
     11          6           0        1.391500    0.000000   -2.250000
     12          1           0        2.471500    0.000000   -2.250000
     13          6           0        0.000000    0.000000    0.858500
     14          6           0        0.000000   -1.205074    1.554250
     15          1           0        0.000000   -2.140382    1.014250
     16          1           0        0.000000    0.000000   -0.221500
     17          6           0        0.000000   -1.205074    2.945750
     18          1           0        0.000000   -2.140382    3.485750
     19          6           0        0.000000    0.000000    3.641500
     20          1           0        0.000000    0.000000    4.721500
     21          6           0        0.000000    1.205074    2.945750
     22          1           0        0.000000    2.140382    3.485750
     23          6           0        0.000000    1.205074    1.554250
     24          1           0        0.000000    2.140382    1.014250
 ---------------------------------------------------------------------

 SCF Done:  E(RB3LYP) =  -464.739928699     A.U. after   10 cycles

 The electronic state is 1-A1.
 Alpha  occ. eigenvalues --  -10.18337 -10.18312 -10.18304 -10.18250 -10.18242
 Alpha  occ. eigenvalues --  -10.18217 -10.16912 -10.16887 -10.16819 -10.16677
 Alpha  occ. eigenvalues --  -10.16674 -10.16125  -0.86721  -0.84943  -0.75726
 Alpha  occ. eigenvalues --   -0.75687  -0.74161  -0.74039  -0.61334  -0.61331
 Alpha  occ. eigenvalues --   -0.59835  -0.59813  -0.53628  -0.52119  -0.47102
 Alpha  occ. eigenvalues --   -0.45829  -0.45823  -0.44267  -0.43323  -0.43281
 Alpha  occ. eigenvalues --   -0.42433  -0.41857  -0.37523  -0.36516  -0.35538
 Alpha  occ. eigenvalues --   -0.35511  -0.34071  -0.33169  -0.27082  -0.26818
 Alpha  occ. eigenvalues --   -0.25193  -0.24710
 Alpha virt. eigenvalues --   -0.02674  -0.02411  -0.01080  -0.00725  -0.00615
 Alpha virt. eigenvalues --    0.00311   0.00355   0.00875   0.02051   0.02296
 Alpha virt. eigenvalues --    0.02755   0.02928   0.03892   0.04135   0.04607

 Mulliken charges:
               1
     1  C   -0.172032
     2  H    0.142825
     3  C   -0.124568
     4  H    0.143893
     5  C   -0.124568
     6  H    0.143893
     7  C   -0.124568
     8  H    0.143893
     9  C   -0.124568
    10  H    0.143893
    11  C   -0.172032
    12  H    0.142825
    13  C   -0.535780
    14  C   -0.098701
    15  H    0.178145
    16  H    0.244600
    17  C   -0.113463
    18  H    0.156517
    19  C   -0.123448
    20  H    0.150747
    21  C   -0.113463
    22  H    0.156517
    23  C   -0.098701
    24  H    0.178145
 Sum of Mulliken charges =   0.00000

 Dipole moment (field-independent basis, Debye):
    X=              0.0000    Y=              0.0000    Z=             -0.7151  Tot=              0.7151
 Quadrupole moment (field-independent basis, Debye-Ang):
   XX=            -71.6771   YY=            -65.0294   ZZ=            -73.4218
   XY=              0.0000   XZ=              0.0000   YZ=              0.0000

 Normal termination of Gaussian 09 at Sun Mar 19 02:04:12 2017.
