 Gaussian 09, Revision D.01,
 Gaussian 09:  EM64L-G09RevD.01 24-Apr-2013

 ----------------------------------------------
 #p b3lyp empiricaldispersion=gd3bj jun-cc-pVTZ
 ----------------------------------------------

 ---------------------
 benzene dimer 1.90425
 ---------------------
 Symbolic Z-matrix:
 Charge =  0 Multiplicity = 1

                         Standard orientation:
 ---------------------------------------------------------------------
 Center     Atomic      Atomic             Coordinates (Angstroms)
 Number     Number       Type             X           Y           Z
 ---------------------------------------------------------------------
      1          6           0       -1.391500    0.000000   -2.200000
      2          1           0       -2.471500    0.000000   -2.200000
      3          6           0       -0.695750    1.205074   -2.200000
      4          1           0       -1.235750    2.140382   -2.200000
      5          6           0       -0.695750   -1.205074   -2.200000
      6          1           0       -1.235750   -2.140382   -2.200000
      7          6           0        0.695750    1.205074   -2.200000
      8          1           0        1.235750    2.140382   -2.200000
      9          6           0        0.695750   -1.205074   -2.200000
     10          1           0        1.235750   -2.140382   -2.200000
     11          6           0        1.391500    0.000000   -2.200000
     12          1           0        2.471500    0.000000   -2.200000
     13          6           0        0.000000    0.000000    0.808500
     14          6           0        0.000000   -1.205074    1.504250
     15          1           0        0.000000   -2.140382    0.964250
     16          1           0        0.000000    0.000000   -0.271500
     17          6           0        0.000000   -1.205074    2.895750
     18          1           0        0.000000   -2.140382    3.435750
     19          6           0        0.000000    0.000000    3.591500
     20          1           0        0.000000    0.000000    4.671500
     21          6           0        0.000000    1.205074    2.895750
     22          1           0        0.000000    2.140382    3.435750
     23          6           0        0.000000    1.205074    1.504250
     24          1           0        0.000000    2.140382    0.964250
 ---------------------------------------------------------------------

 SCF Done:  E(RB3LYP) =  -464.705686447     A.U. after   11 cycles

 The electronic state is 1-A1.
 Alpha  occ. eigenvalues --  -10.18663 -10.18638 -10.18632 -10.18578 -10.18572
 Alpha  occ. eigenvalues --  -10.18548 -10.17147 -10.17125 -10.17050 -10.16886
 Alpha  occ. eigenvalues --  -10.16883 -10.16244  -0.86871  -0.84901  -0.75820
 Alpha  occ. eigenvalues --   -0.75776  -0.74124  -0.73996  -0.61391  -0.61389
 Alpha  occ. eigenvalues --   -0.59782  -0.59775  -0.53695  -0.52063  -0.47131
 Alpha  occ. eigenvalues --   -0.45869  -0.45808  -0.44192  -0.43368  -0.43323
 Alpha  occ. eigenvalues --   -0.42527  -0.41787  -0.37383  -0.36443  -0.35567
 Alpha  occ. eigenvalues --   -0.35538  -0.33990  -0.32885  -0.27205  -0.26873
 Alpha  occ. eigenvalues --   -0.25120  -0.24551
 Alpha virt. eigenvalues --   -0.02750  -0.02447  -0.00822  -0.00621  -0.00490
 Alpha virt. eigenvalues --    0.00621   0.00627   0.01188   0.02442   0.02660
 Alpha virt. eigenvalues --    0.03116   0.03290   0.04605   0.04613   0.05132

 Mulliken charges:
               1
     1  C   -0.136379
     2  H    0.119091
     3  C   -0.120550
     4  H    0.127886
     5  C   -0.120550
     6  H    0.127886
     7  C   -0.120550
     8  H    0.127886
     9  C   -0.120550
    10  H    0.127886
    11  C   -0.136379
    12  H    0.119091
    13  C    0.251686
    14  C   -0.223325
    15  H    0.107239
    16  H    0.006022
    17  C   -0.119195
    18  H    0.119062
    19  C   -0.114426
    20  H    0.094389
    21  C   -0.119195
    22  H    0.119062
    23  C   -0.223325
    24  H    0.107239
 Sum of Mulliken charges =   0.00000

 Dipole moment (field-independent basis, Debye):
    X=              0.0000    Y=              0.0000    Z=             -0.7678  Tot=              0.7678
 Quadrupole moment (field-independent basis, Debye-Ang):
   XX=            -71.6624   YY=            -65.0798   ZZ=            -73.6034
   XY=              0.0000   XZ=              0.0000   YZ=              0.0000

 Normal termination of Gaussian 09 at Sun Mar 19 00:56:49 2017.
