 Gaussian 09, Revision D.01,
 Gaussian 09:  EM64L-G09RevD.01 24-Apr-2013

 ------------------------------------------------
 #p pbe1pbe empiricaldispersion=gd3bj may-cc-pVQZ
 ------------------------------------------------

 ---------------------
 benzene dimer 2.60425
 ---------------------
 Symbolic Z-matrix:
 Charge =  0 Multiplicity = 1

                         Standard orientation:
 ---------------------------------------------------------------------
 Center     Atomic      Atomic             Coordinates (Angstroms)
 Number     Number       Type             X           Y           Z
 ---------------------------------------------------------------------
      1          6           0       -1.391500    0.000000   -2.550000
      2          1           0       -2.471500    0.000000   -2.550000
      3          6           0       -0.695750    1.205074   -2.550000
      4          1           0       -1.235750    2.140382   -2.550000
      5          6           0       -0.695750   -1.205074   -2.550000
      6          1           0       -1.235750   -2.140382   -2.550000
      7          6           0        0.695750    1.205074   -2.550000
      8          1           0        1.235750    2.140382   -2.550000
      9          6           0        0.695750   -1.205074   -2.550000
     10          1           0        1.235750   -2.140382   -2.550000
     11          6           0        1.391500    0.000000   -2.550000
     12          1           0        2.471500    0.000000   -2.550000
     13          6           0        0.000000    0.000000    1.158500
     14          6           0        0.000000   -1.205074    1.854250
     15          1           0        0.000000   -2.140382    1.314250
     16          1           0        0.000000    0.000000    0.078500
     17          6           0        0.000000   -1.205074    3.245750
     18          1           0        0.000000   -2.140382    3.785750
     19          6           0        0.000000    0.000000    3.941500
     20          1           0        0.000000    0.000000    5.021500
     21          6           0        0.000000    1.205074    3.245750
     22          1           0        0.000000    2.140382    3.785750
     23          6           0        0.000000    1.205074    1.854250
     24          1           0        0.000000    2.140382    1.314250
 ---------------------------------------------------------------------

 SCF Done:  E(RPBE1PBE) =  -464.136622049     A.U. after   10 cycles

 The electronic state is 1-A1.
 Alpha  occ. eigenvalues --  -10.23295 -10.23269 -10.23259 -10.23204 -10.23193
 Alpha  occ. eigenvalues --  -10.23167 -10.22281 -10.22244 -10.22194 -10.22119
 Alpha  occ. eigenvalues --  -10.22113 -10.21860  -0.88783  -0.87656  -0.77580
 Alpha  occ. eigenvalues --   -0.77556  -0.76518  -0.76432  -0.62790  -0.62786
 Alpha  occ. eigenvalues --   -0.61742  -0.61696  -0.54742  -0.53685  -0.48103
 Alpha  occ. eigenvalues --   -0.47091  -0.46789  -0.45704  -0.44063  -0.44033
 Alpha  occ. eigenvalues --   -0.43082  -0.43052  -0.39036  -0.38016  -0.36077
 Alpha  occ. eigenvalues --   -0.36057  -0.35057  -0.34783  -0.27419  -0.27373
 Alpha  occ. eigenvalues --   -0.26275  -0.26093
 Alpha virt. eigenvalues --   -0.01610  -0.01492  -0.00366  -0.00328  -0.00216
 Alpha virt. eigenvalues --    0.01065   0.01143   0.01692   0.02748   0.02945
 Alpha virt. eigenvalues --    0.03591   0.03707   0.04533   0.04764   0.05040

 Mulliken charges:
               1
     1  C   -0.195427
     2  H    0.176508
     3  C   -0.159724
     4  H    0.172708
     5  C   -0.159724
     6  H    0.172708
     7  C   -0.159724
     8  H    0.172708
     9  C   -0.159724
    10  H    0.172708
    11  C   -0.195427
    12  H    0.176508
    13  C   -0.342493
    14  C   -0.103912
    15  H    0.206328
    16  H    0.143786
    17  C   -0.174568
    18  H    0.183245
    19  C   -0.214865
    20  H    0.177287
    21  C   -0.174568
    22  H    0.183245
    23  C   -0.103912
    24  H    0.206328
 Sum of Mulliken charges =   0.00000

 Dipole moment (field-independent basis, Debye):
    X=              0.0000    Y=              0.0000    Z=             -0.4812  Tot=              0.4812
 Quadrupole moment (field-independent basis, Debye-Ang):
   XX=            -71.2474   YY=            -63.7675   ZZ=            -72.1409
   XY=              0.0000   XZ=              0.0000   YZ=              0.0000

 Normal termination of Gaussian 09 at Sun Mar 19 04:37:19 2017.
