 Gaussian 09, Revision D.01,
 Gaussian 09:  EM64L-G09RevD.01 24-Apr-2013

 ------------------------------------------
 #p b3lyp empiricaldispersion=gd3bj cc-pVTZ
 ------------------------------------------

 ---------------------
 benzene dimer 2.20425
 ---------------------
 Symbolic Z-matrix:
 Charge =  0 Multiplicity = 1

                         Standard orientation:
 ---------------------------------------------------------------------
 Center     Atomic      Atomic             Coordinates (Angstroms)
 Number     Number       Type             X           Y           Z
 ---------------------------------------------------------------------
      1          6           0       -1.391500    0.000000   -2.350000
      2          1           0       -2.471500    0.000000   -2.350000
      3          6           0       -0.695750    1.205074   -2.350000
      4          1           0       -1.235750    2.140382   -2.350000
      5          6           0       -0.695750   -1.205074   -2.350000
      6          1           0       -1.235750   -2.140382   -2.350000
      7          6           0        0.695750    1.205074   -2.350000
      8          1           0        1.235750    2.140382   -2.350000
      9          6           0        0.695750   -1.205074   -2.350000
     10          1           0        1.235750   -2.140382   -2.350000
     11          6           0        1.391500    0.000000   -2.350000
     12          1           0        2.471500    0.000000   -2.350000
     13          6           0        0.000000    0.000000    0.958500
     14          6           0        0.000000   -1.205074    1.654250
     15          1           0        0.000000   -2.140382    1.114250
     16          1           0        0.000000    0.000000   -0.121500
     17          6           0        0.000000   -1.205074    3.045750
     18          1           0        0.000000   -2.140382    3.585750
     19          6           0        0.000000    0.000000    3.741500
     20          1           0        0.000000    0.000000    4.821500
     21          6           0        0.000000    1.205074    3.045750
     22          1           0        0.000000    2.140382    3.585750
     23          6           0        0.000000    1.205074    1.654250
     24          1           0        0.000000    2.140382    1.114250
 ---------------------------------------------------------------------

 SCF Done:  E(RB3LYP) =  -464.708660857     A.U. after   13 cycles

 The electronic state is 1-A1.
 Alpha  occ. eigenvalues --  -10.18394 -10.18372 -10.18361 -10.18313 -10.18300
 Alpha  occ. eigenvalues --  -10.18279 -10.17083 -10.17052 -10.17000 -10.16878
 Alpha  occ. eigenvalues --  -10.16874 -10.16457  -0.86427  -0.84884  -0.75500
 Alpha  occ. eigenvalues --   -0.75467  -0.74096  -0.73986  -0.61126  -0.61122
 Alpha  occ. eigenvalues --   -0.59766  -0.59726  -0.53354  -0.51993  -0.46911
 Alpha  occ. eigenvalues --   -0.45684  -0.45588  -0.44171  -0.43081  -0.43044
 Alpha  occ. eigenvalues --   -0.42066  -0.41761  -0.37518  -0.36393  -0.35310
 Alpha  occ. eigenvalues --   -0.35287  -0.33986  -0.33374  -0.26672  -0.26520
 Alpha  occ. eigenvalues --   -0.25059  -0.24720
 Alpha virt. eigenvalues --   -0.01993  -0.01864  -0.00335  -0.00309   0.03102
 Alpha virt. eigenvalues --    0.05269   0.05617   0.06859   0.08335   0.08587
 Alpha virt. eigenvalues --    0.09915   0.10425   0.11945   0.12484   0.12515

 Mulliken charges:
               1
     1  C   -0.092982
     2  H    0.106436
     3  C   -0.112436
     4  H    0.108606
     5  C   -0.112436
     6  H    0.108606
     7  C   -0.112436
     8  H    0.108606
     9  C   -0.112436
    10  H    0.108606
    11  C   -0.092982
    12  H    0.106436
    13  C   -0.028347
    14  C   -0.128981
    15  H    0.099005
    16  H    0.088184
    17  C   -0.102135
    18  H    0.102206
    19  C   -0.113892
    20  H    0.102279
    21  C   -0.102135
    22  H    0.102206
    23  C   -0.128981
    24  H    0.099005
 Sum of Mulliken charges =   0.00000

 Dipole moment (field-independent basis, Debye):
    X=              0.0000    Y=              0.0000    Z=             -0.6170  Tot=              0.6170
 Quadrupole moment (field-independent basis, Debye-Ang):
   XX=            -71.2810   YY=            -64.5207   ZZ=            -72.5729
   XY=              0.0000   XZ=              0.0000   YZ=              0.0000

 Normal termination of Gaussian 09 at Sun Mar 19 00:32:47 2017.
