 Gaussian 09, Revision D.01,
 Gaussian 09:  EM64L-G09RevD.01 24-Apr-2013

 ------------------------------------------
 #p b3lyp empiricaldispersion=gd3bj cc-pVQZ
 ------------------------------------------

 ---------------------
 benzene dimer 5.40425
 ---------------------
 Symbolic Z-matrix:
 Charge =  0 Multiplicity = 1

                         Standard orientation:
 ---------------------------------------------------------------------
 Center     Atomic      Atomic             Coordinates (Angstroms)
 Number     Number       Type             X           Y           Z
 ---------------------------------------------------------------------
      1          6           0       -1.391500    0.000000   -3.950000
      2          1           0       -2.471500    0.000000   -3.950000
      3          6           0       -0.695750    1.205074   -3.950000
      4          1           0       -1.235750    2.140382   -3.950000
      5          6           0       -0.695750   -1.205074   -3.950000
      6          1           0       -1.235750   -2.140382   -3.950000
      7          6           0        0.695750    1.205074   -3.950000
      8          1           0        1.235750    2.140382   -3.950000
      9          6           0        0.695750   -1.205074   -3.950000
     10          1           0        1.235750   -2.140382   -3.950000
     11          6           0        1.391500    0.000000   -3.950000
     12          1           0        2.471500    0.000000   -3.950000
     13          6           0        0.000000    0.000000    2.558500
     14          6           0        0.000000   -1.205074    3.254250
     15          1           0        0.000000   -2.140382    2.714250
     16          1           0        0.000000    0.000000    1.478500
     17          6           0        0.000000   -1.205074    4.645750
     18          1           0        0.000000   -2.140382    5.185750
     19          6           0        0.000000    0.000000    5.341500
     20          1           0        0.000000    0.000000    6.421500
     21          6           0        0.000000    1.205074    4.645750
     22          1           0        0.000000    2.140382    5.185750
     23          6           0        0.000000    1.205074    3.254250
     24          1           0        0.000000    2.140382    2.714250
 ---------------------------------------------------------------------

 SCF Done:  E(RB3LYP) =  -464.738368487     A.U. after   13 cycles

 The electronic state is 1-A1.
 Alpha  occ. eigenvalues --  -10.17768 -10.17741 -10.17740 -10.17680 -10.17679
 Alpha  occ. eigenvalues --  -10.17651 -10.17520 -10.17491 -10.17475 -10.17426
 Alpha  occ. eigenvalues --  -10.17425 -10.17381  -0.85926  -0.85669  -0.75073
 Alpha  occ. eigenvalues --   -0.75070  -0.74822  -0.74809  -0.60771  -0.60771
 Alpha  occ. eigenvalues --   -0.60519  -0.60511  -0.52998  -0.52743  -0.46615
 Alpha  occ. eigenvalues --   -0.46360  -0.45244  -0.44987  -0.42727  -0.42723
 Alpha  occ. eigenvalues --   -0.42481  -0.42457  -0.37427  -0.37169  -0.34988
 Alpha  occ. eigenvalues --   -0.34985  -0.34740  -0.34722  -0.26049  -0.26046
 Alpha  occ. eigenvalues --   -0.25797  -0.25784
 Alpha virt. eigenvalues --   -0.01577  -0.01575  -0.01326  -0.01315   0.02483
 Alpha virt. eigenvalues --    0.03010   0.05254   0.05337   0.05569   0.05587
 Alpha virt. eigenvalues --    0.08061   0.08066   0.08191   0.08287   0.10975

 Mulliken charges:
               1
     1  C   -0.116532
     2  H    0.116432
     3  C   -0.116340
     4  H    0.116433
     5  C   -0.116340
     6  H    0.116433
     7  C   -0.116340
     8  H    0.116433
     9  C   -0.116340
    10  H    0.116433
    11  C   -0.116532
    12  H    0.116432
    13  C   -0.125043
    14  C   -0.117831
    15  H    0.116329
    16  H    0.130556
    17  C   -0.115738
    18  H    0.115007
    19  C   -0.116311
    20  H    0.115093
    21  C   -0.115738
    22  H    0.115007
    23  C   -0.117831
    24  H    0.116329
 Sum of Mulliken charges =   0.00000

 Dipole moment (field-independent basis, Debye):
    X=              0.0000    Y=              0.0000    Z=             -0.0839  Tot=              0.0839
 Quadrupole moment (field-independent basis, Debye-Ang):
   XX=            -71.8928   YY=            -64.4882   ZZ=            -72.1844
   XY=              0.0000   XZ=              0.0000   YZ=              0.0000

 Normal termination of Gaussian 09 at Sun Mar 19 01:53:05 2017.
