 Gaussian 09, Revision D.01,
 Gaussian 09:  EM64L-G09RevD.01 24-Apr-2013

 ----------------------------------------------
 #p b3lyp empiricaldispersion=gd3bj may-cc-pVQZ
 ----------------------------------------------

 ---------------------
 benzene dimer 4.90425
 ---------------------
 Symbolic Z-matrix:
 Charge =  0 Multiplicity = 1

                         Standard orientation:
 ---------------------------------------------------------------------
 Center     Atomic      Atomic             Coordinates (Angstroms)
 Number     Number       Type             X           Y           Z
 ---------------------------------------------------------------------
      1          6           0       -1.391500    0.000000   -3.700000
      2          1           0       -2.471500    0.000000   -3.700000
      3          6           0       -0.695750    1.205074   -3.700000
      4          1           0       -1.235750    2.140382   -3.700000
      5          6           0       -0.695750   -1.205074   -3.700000
      6          1           0       -1.235750   -2.140382   -3.700000
      7          6           0        0.695750    1.205074   -3.700000
      8          1           0        1.235750    2.140382   -3.700000
      9          6           0        0.695750   -1.205074   -3.700000
     10          1           0        1.235750   -2.140382   -3.700000
     11          6           0        1.391500    0.000000   -3.700000
     12          1           0        2.471500    0.000000   -3.700000
     13          6           0        0.000000    0.000000    2.308500
     14          6           0        0.000000   -1.205074    3.004250
     15          1           0        0.000000   -2.140382    2.464250
     16          1           0        0.000000    0.000000    1.228500
     17          6           0        0.000000   -1.205074    4.395750
     18          1           0        0.000000   -2.140382    4.935750
     19          6           0        0.000000    0.000000    5.091500
     20          1           0        0.000000    0.000000    6.171500
     21          6           0        0.000000    1.205074    4.395750
     22          1           0        0.000000    2.140382    4.935750
     23          6           0        0.000000    1.205074    3.004250
     24          1           0        0.000000    2.140382    2.464250
 ---------------------------------------------------------------------

 SCF Done:  E(RB3LYP) =  -464.739485482     A.U. after    9 cycles

 The electronic state is 1-A1.
 Alpha  occ. eigenvalues --  -10.17891 -10.17863 -10.17861 -10.17802 -10.17800
 Alpha  occ. eigenvalues --  -10.17772 -10.17595 -10.17564 -10.17544 -10.17498
 Alpha  occ. eigenvalues --  -10.17497 -10.17444  -0.86047  -0.85738  -0.75186
 Alpha  occ. eigenvalues --   -0.75182  -0.74884  -0.74868  -0.60875  -0.60874
 Alpha  occ. eigenvalues --   -0.60573  -0.60563  -0.53097  -0.52790  -0.46701
 Alpha  occ. eigenvalues --   -0.46396  -0.45357  -0.45049  -0.42828  -0.42822
 Alpha  occ. eigenvalues --   -0.42534  -0.42503  -0.37544  -0.37233  -0.35088
 Alpha  occ. eigenvalues --   -0.35084  -0.34791  -0.34766  -0.26169  -0.26164
 Alpha  occ. eigenvalues --   -0.25866  -0.25848
 Alpha virt. eigenvalues --   -0.01886  -0.01880  -0.01579  -0.01571  -0.00997
 Alpha virt. eigenvalues --   -0.00047   0.00569   0.00925   0.01467   0.01526
 Alpha virt. eigenvalues --    0.02973   0.03035   0.03405   0.03519   0.03636

 Mulliken charges:
               1
     1  C   -0.172736
     2  H    0.159636
     3  C   -0.154484
     4  H    0.160730
     5  C   -0.154484
     6  H    0.160730
     7  C   -0.154484
     8  H    0.160730
     9  C   -0.154484
    10  H    0.160730
    11  C   -0.172736
    12  H    0.159636
    13  C   -0.185771
    14  C   -0.140366
    15  H    0.160305
    16  H    0.185799
    17  C   -0.167415
    18  H    0.159056
    19  C   -0.182490
    20  H    0.160520
    21  C   -0.167415
    22  H    0.159056
    23  C   -0.140366
    24  H    0.160305
 Sum of Mulliken charges =   0.00000

 Dipole moment (field-independent basis, Debye):
    X=              0.0000    Y=              0.0000    Z=             -0.1066  Tot=              0.1066
 Quadrupole moment (field-independent basis, Debye-Ang):
   XX=            -72.1993   YY=            -64.8450   ZZ=            -72.5612
   XY=              0.0000   XZ=              0.0000   YZ=              0.0000

 Normal termination of Gaussian 09 at Sun Mar 19 02:37:55 2017.
