 Gaussian 09, Revision D.01,
 Gaussian 09:  EM64L-G09RevD.01 24-Apr-2013

 ------------------------------------------------
 #p pbe1pbe empiricaldispersion=gd3bj may-cc-pVQZ
 ------------------------------------------------

 ---------------------
 benzene dimer 4.40425
 ---------------------
 Symbolic Z-matrix:
 Charge =  0 Multiplicity = 1

                         Standard orientation:
 ---------------------------------------------------------------------
 Center     Atomic      Atomic             Coordinates (Angstroms)
 Number     Number       Type             X           Y           Z
 ---------------------------------------------------------------------
      1          6           0       -1.391500    0.000000   -3.450000
      2          1           0       -2.471500    0.000000   -3.450000
      3          6           0       -0.695750    1.205074   -3.450000
      4          1           0       -1.235750    2.140382   -3.450000
      5          6           0       -0.695750   -1.205074   -3.450000
      6          1           0       -1.235750   -2.140382   -3.450000
      7          6           0        0.695750    1.205074   -3.450000
      8          1           0        1.235750    2.140382   -3.450000
      9          6           0        0.695750   -1.205074   -3.450000
     10          1           0        1.235750   -2.140382   -3.450000
     11          6           0        1.391500    0.000000   -3.450000
     12          1           0        2.471500    0.000000   -3.450000
     13          6           0        0.000000    0.000000    2.058500
     14          6           0        0.000000   -1.205074    2.754250
     15          1           0        0.000000   -2.140382    2.214250
     16          1           0        0.000000    0.000000    0.978500
     17          6           0        0.000000   -1.205074    4.145750
     18          1           0        0.000000   -2.140382    4.685750
     19          6           0        0.000000    0.000000    4.841500
     20          1           0        0.000000    0.000000    5.921500
     21          6           0        0.000000    1.205074    4.145750
     22          1           0        0.000000    2.140382    4.685750
     23          6           0        0.000000    1.205074    2.754250
     24          1           0        0.000000    2.140382    2.214250
 ---------------------------------------------------------------------

 SCF Done:  E(RPBE1PBE) =  -464.133058421     A.U. after   15 cycles

 The electronic state is 1-A1.
 Alpha  occ. eigenvalues --  -10.23028 -10.22999 -10.22996 -10.22935 -10.22931
 Alpha  occ. eigenvalues --  -10.22902 -10.22639 -10.22605 -10.22578 -10.22533
 Alpha  occ. eigenvalues --  -10.22530 -10.22462  -0.88474  -0.88065  -0.77296
 Alpha  occ. eigenvalues --   -0.77290  -0.76898  -0.76874  -0.62536  -0.62535
 Alpha  occ. eigenvalues --   -0.62138  -0.62123  -0.54487  -0.54082  -0.47879
 Alpha  occ. eigenvalues --   -0.47477  -0.46524  -0.46118  -0.43802  -0.43793
 Alpha  occ. eigenvalues --   -0.43414  -0.43370  -0.38817  -0.38403  -0.35827
 Alpha  occ. eigenvalues --   -0.35821  -0.35437  -0.35400  -0.27036  -0.27028
 Alpha  occ. eigenvalues --   -0.26635  -0.26609
 Alpha virt. eigenvalues --   -0.01217  -0.01205  -0.00801  -0.00796  -0.00263
 Alpha virt. eigenvalues --    0.00893   0.01255   0.01710   0.02419   0.02419
 Alpha virt. eigenvalues --    0.03722   0.03795   0.04309   0.04356   0.04356

 Mulliken charges:
               1
     1  C   -0.202048
     2  H    0.181905
     3  C   -0.174048
     4  H    0.183689
     5  C   -0.174048
     6  H    0.183689
     7  C   -0.174048
     8  H    0.183689
     9  C   -0.174048
    10  H    0.183689
    11  C   -0.202048
    12  H    0.181905
    13  C   -0.203021
    14  C   -0.161787
    15  H    0.187548
    16  H    0.200183
    17  C   -0.192750
    18  H    0.184674
    19  C   -0.216613
    20  H    0.185803
    21  C   -0.192750
    22  H    0.184674
    23  C   -0.161787
    24  H    0.187548
 Sum of Mulliken charges =   0.00000

 Dipole moment (field-independent basis, Debye):
    X=              0.0000    Y=              0.0000    Z=             -0.1470  Tot=              0.1470
 Quadrupole moment (field-independent basis, Debye-Ang):
   XX=            -71.4787   YY=            -63.6637   ZZ=            -71.8747
   XY=              0.0000   XZ=              0.0000   YZ=              0.0000

 Normal termination of Gaussian 09 at Sun Mar 19 04:51:24 2017.
