 Gaussian 09, Revision D.01,
 Gaussian 09:  EM64L-G09RevD.01 24-Apr-2013

 ------------------------------------------
 #p b3lyp empiricaldispersion=gd3bj cc-pVQZ
 ------------------------------------------

 ---------------------
 benzene dimer 2.70425
 ---------------------
 Symbolic Z-matrix:
 Charge =  0 Multiplicity = 1

                         Standard orientation:
 ---------------------------------------------------------------------
 Center     Atomic      Atomic             Coordinates (Angstroms)
 Number     Number       Type             X           Y           Z
 ---------------------------------------------------------------------
      1          6           0       -1.391500    0.000000   -2.600000
      2          1           0       -2.471500    0.000000   -2.600000
      3          6           0       -0.695750    1.205074   -2.600000
      4          1           0       -1.235750    2.140382   -2.600000
      5          6           0       -0.695750   -1.205074   -2.600000
      6          1           0       -1.235750   -2.140382   -2.600000
      7          6           0        0.695750    1.205074   -2.600000
      8          1           0        1.235750    2.140382   -2.600000
      9          6           0        0.695750   -1.205074   -2.600000
     10          1           0        1.235750   -2.140382   -2.600000
     11          6           0        1.391500    0.000000   -2.600000
     12          1           0        2.471500    0.000000   -2.600000
     13          6           0        0.000000    0.000000    1.208500
     14          6           0        0.000000   -1.205074    1.904250
     15          1           0        0.000000   -2.140382    1.364250
     16          1           0        0.000000    0.000000    0.128500
     17          6           0        0.000000   -1.205074    3.295750
     18          1           0        0.000000   -2.140382    3.835750
     19          6           0        0.000000    0.000000    3.991500
     20          1           0        0.000000    0.000000    5.071500
     21          6           0        0.000000    1.205074    3.295750
     22          1           0        0.000000    2.140382    3.835750
     23          6           0        0.000000    1.205074    1.904250
     24          1           0        0.000000    2.140382    1.364250
 ---------------------------------------------------------------------

 SCF Done:  E(RB3LYP) =  -464.742382890     A.U. after   15 cycles

 The electronic state is 1-A1.
 Alpha  occ. eigenvalues --  -10.18057 -10.18033 -10.18023 -10.17972 -10.17961
 Alpha  occ. eigenvalues --  -10.17937 -10.17133 -10.17098 -10.17052 -10.16983
 Alpha  occ. eigenvalues --  -10.16977 -10.16751  -0.86254  -0.85232  -0.75379
 Alpha  occ. eigenvalues --   -0.75358  -0.74412  -0.74336  -0.61047  -0.61043
 Alpha  occ. eigenvalues --   -0.60093  -0.60051  -0.53271  -0.52308  -0.46858
 Alpha  occ. eigenvalues --   -0.45931  -0.45530  -0.44543  -0.43008  -0.42982
 Alpha  occ. eigenvalues --   -0.42088  -0.42072  -0.37723  -0.36752  -0.35258
 Alpha  occ. eigenvalues --   -0.35241  -0.34330  -0.34090  -0.26440  -0.26404
 Alpha  occ. eigenvalues --   -0.25409  -0.25253
 Alpha virt. eigenvalues --   -0.01968  -0.01907  -0.00875  -0.00864   0.01872
 Alpha virt. eigenvalues --    0.03723   0.04107   0.05211   0.06358   0.06605
 Alpha virt. eigenvalues --    0.07933   0.08168   0.09422   0.09548   0.10901

 Mulliken charges:
               1
     1  C   -0.109795
     2  H    0.114009
     3  C   -0.118895
     4  H    0.117478
     5  C   -0.118895
     6  H    0.117478
     7  C   -0.118895
     8  H    0.117478
     9  C   -0.118895
    10  H    0.117478
    11  C   -0.109795
    12  H    0.114009
    13  C   -0.068945
    14  C   -0.137388
    15  H    0.113378
    16  H    0.118647
    17  C   -0.118414
    18  H    0.113616
    19  C   -0.108850
    20  H    0.114003
    21  C   -0.118414
    22  H    0.113616
    23  C   -0.137388
    24  H    0.113378
 Sum of Mulliken charges =   0.00000

 Dipole moment (field-independent basis, Debye):
    X=              0.0000    Y=              0.0000    Z=             -0.4303  Tot=              0.4303
 Quadrupole moment (field-independent basis, Debye-Ang):
   XX=            -71.6910   YY=            -64.6517   ZZ=            -72.4950
   XY=              0.0000   XZ=              0.0000   YZ=              0.0000

 Normal termination of Gaussian 09 at Sun Mar 19 02:35:22 2017.
