 Gaussian 09, Revision D.01,
 Gaussian 09:  EM64L-G09RevD.01 24-Apr-2013

 ------------------------------------------
 #p b3lyp empiricaldispersion=gd3bj cc-pVDZ
 ------------------------------------------

 ---------------------
 benzene dimer 3.90425
 ---------------------
 Symbolic Z-matrix:
 Charge =  0 Multiplicity = 1

                         Standard orientation:
 ---------------------------------------------------------------------
 Center     Atomic      Atomic             Coordinates (Angstroms)
 Number     Number       Type             X           Y           Z
 ---------------------------------------------------------------------
      1          6           0       -1.391500    0.000000   -3.200000
      2          1           0       -2.471500    0.000000   -3.200000
      3          6           0       -0.695750    1.205074   -3.200000
      4          1           0       -1.235750    2.140382   -3.200000
      5          6           0       -0.695750   -1.205074   -3.200000
      6          1           0       -1.235750   -2.140382   -3.200000
      7          6           0        0.695750    1.205074   -3.200000
      8          1           0        1.235750    2.140382   -3.200000
      9          6           0        0.695750   -1.205074   -3.200000
     10          1           0        1.235750   -2.140382   -3.200000
     11          6           0        1.391500    0.000000   -3.200000
     12          1           0        2.471500    0.000000   -3.200000
     13          6           0        0.000000    0.000000    1.808500
     14          6           0        0.000000   -1.205074    2.504250
     15          1           0        0.000000   -2.140382    1.964250
     16          1           0        0.000000    0.000000    0.728500
     17          6           0        0.000000   -1.205074    3.895750
     18          1           0        0.000000   -2.140382    4.435750
     19          6           0        0.000000    0.000000    4.591500
     20          1           0        0.000000    0.000000    5.671500
     21          6           0        0.000000    1.205074    3.895750
     22          1           0        0.000000    2.140382    4.435750
     23          6           0        0.000000    1.205074    2.504250
     24          1           0        0.000000    2.140382    1.964250
 ---------------------------------------------------------------------

 SCF Done:  E(RB3LYP) =  -464.563448445     A.U. after   13 cycles

 The electronic state is 1-A1.
 Alpha  occ. eigenvalues --  -10.19017 -10.18996 -10.18992 -10.18945 -10.18941
 Alpha  occ. eigenvalues --  -10.18920 -10.18547 -10.18518 -10.18487 -10.18455
 Alpha  occ. eigenvalues --  -10.18449 -10.18356  -0.85744  -0.85243  -0.74916
 Alpha  occ. eigenvalues --   -0.74909  -0.74433  -0.74399  -0.60533  -0.60531
 Alpha  occ. eigenvalues --   -0.60051  -0.60028  -0.52570  -0.52079  -0.46351
 Alpha  occ. eigenvalues --   -0.45864  -0.44807  -0.44311  -0.42364  -0.42354
 Alpha  occ. eigenvalues --   -0.41898  -0.41835  -0.36984  -0.36475  -0.34575
 Alpha  occ. eigenvalues --   -0.34568  -0.34104  -0.34047  -0.25576  -0.25566
 Alpha  occ. eigenvalues --   -0.25091  -0.25057
 Alpha virt. eigenvalues --   -0.00669  -0.00664  -0.00190  -0.00161   0.05577
 Alpha virt. eigenvalues --    0.06502   0.09687   0.09868   0.10331   0.10427
 Alpha virt. eigenvalues --    0.13372   0.13374   0.13790   0.13849   0.15226

 Mulliken charges:
               1
     1  C    0.036273
     2  H   -0.034940
     3  C    0.035421
     4  H   -0.035454
     5  C    0.035421
     6  H   -0.035454
     7  C    0.035421
     8  H   -0.035454
     9  C    0.035421
    10  H   -0.035454
    11  C    0.036273
    12  H   -0.034940
    13  C    0.032105
    14  C    0.034915
    15  H   -0.037150
    16  H   -0.024309
    17  C    0.036049
    18  H   -0.037877
    19  C    0.035593
    20  H   -0.037794
    21  C    0.036049
    22  H   -0.037877
    23  C    0.034915
    24  H   -0.037150
 Sum of Mulliken charges =   0.00000

 Dipole moment (field-independent basis, Debye):
    X=              0.0000    Y=              0.0000    Z=             -0.1936  Tot=              0.1936
 Quadrupole moment (field-independent basis, Debye-Ang):
   XX=            -70.8405   YY=            -64.1238   ZZ=            -71.2737
   XY=              0.0000   XZ=              0.0000   YZ=              0.0000

 Normal termination of Gaussian 09 at Sun Mar 19 00:52:11 2017.
