 Gaussian 09, Revision D.01,
 Gaussian 09:  EM64L-G09RevD.01 24-Apr-2013

 ------------
 #p hf 6-31g*
 ------------

 ---------------------
 benzene dimer 5.40425
 ---------------------
 Symbolic Z-matrix:
 Charge =  0 Multiplicity = 1

                         Standard orientation:
 ---------------------------------------------------------------------
 Center     Atomic      Atomic             Coordinates (Angstroms)
 Number     Number       Type             X           Y           Z
 ---------------------------------------------------------------------
      1          6           0       -1.391500    0.000000   -3.950000
      2          1           0       -2.471500    0.000000   -3.950000
      3          6           0       -0.695750    1.205074   -3.950000
      4          1           0       -1.235750    2.140382   -3.950000
      5          6           0       -0.695750   -1.205074   -3.950000
      6          1           0       -1.235750   -2.140382   -3.950000
      7          6           0        0.695750    1.205074   -3.950000
      8          1           0        1.235750    2.140382   -3.950000
      9          6           0        0.695750   -1.205074   -3.950000
     10          1           0        1.235750   -2.140382   -3.950000
     11          6           0        1.391500    0.000000   -3.950000
     12          1           0        2.471500    0.000000   -3.950000
     13          6           0        0.000000    0.000000    2.558500
     14          6           0        0.000000   -1.205074    3.254250
     15          1           0        0.000000   -2.140382    2.714250
     16          1           0        0.000000    0.000000    1.478500
     17          6           0        0.000000   -1.205074    4.645750
     18          1           0        0.000000   -2.140382    5.185750
     19          6           0        0.000000    0.000000    5.341500
     20          1           0        0.000000    0.000000    6.421500
     21          6           0        0.000000    1.205074    4.645750
     22          1           0        0.000000    2.140382    5.185750
     23          6           0        0.000000    1.205074    3.254250
     24          1           0        0.000000    2.140382    2.714250
 ---------------------------------------------------------------------

 SCF Done:  E(RHF) =  -461.405907806     A.U. after   12 cycles

 The electronic state is 1-A1.
 Alpha  occ. eigenvalues --  -11.23269 -11.23213 -11.23211 -11.23091 -11.23089
 Alpha  occ. eigenvalues --  -11.23032 -11.22991 -11.22935 -11.22916 -11.22809
 Alpha  occ. eigenvalues --  -11.22805 -11.22736  -1.14579  -1.14293  -1.01030
 Alpha  occ. eigenvalues --   -1.01027  -1.00751  -1.00736  -0.81944  -0.81944
 Alpha  occ. eigenvalues --   -0.81664  -0.81656  -0.70550  -0.70265  -0.64045
 Alpha  occ. eigenvalues --   -0.63762  -0.61300  -0.61015  -0.58386  -0.58382
 Alpha  occ. eigenvalues --   -0.58112  -0.58087  -0.49693  -0.49406  -0.49007
 Alpha  occ. eigenvalues --   -0.49004  -0.48731  -0.48710  -0.33086  -0.33080
 Alpha  occ. eigenvalues --   -0.32807  -0.32787
 Alpha virt. eigenvalues --    0.14726   0.14730   0.15005   0.15021   0.23406
 Alpha virt. eigenvalues --    0.23691   0.29284   0.29297   0.29529   0.29623
 Alpha virt. eigenvalues --    0.33142   0.33150   0.33394   0.33451   0.33609

 Mulliken charges:
               1
     1  C   -0.200088
     2  H    0.200458
     3  C   -0.200321
     4  H    0.200137
     5  C   -0.200321
     6  H    0.200137
     7  C   -0.200321
     8  H    0.200137
     9  C   -0.200321
    10  H    0.200137
    11  C   -0.200088
    12  H    0.200458
    13  C   -0.201381
    14  C   -0.200267
    15  H    0.199765
    16  H    0.205555
    17  C   -0.199886
    18  H    0.198915
    19  C   -0.200143
    20  H    0.198910
    21  C   -0.199886
    22  H    0.198915
    23  C   -0.200267
    24  H    0.199765
 Sum of Mulliken charges =   0.00000

 Dipole moment (field-independent basis, Debye):
    X=              0.0000    Y=              0.0000    Z=             -0.0724  Tot=              0.0724
 Quadrupole moment (field-independent basis, Debye-Ang):
   XX=            -71.1920   YY=            -62.7716   ZZ=            -71.5513
   XY=              0.0000   XZ=              0.0000   YZ=              0.0000

 Normal termination of Gaussian 09 at Sun Mar 19 00:59:31 2017.
