 Gaussian 09, Revision D.01,
 Gaussian 09:  EM64L-G09RevD.01 24-Apr-2013

 ----------------------------------------------
 #p b3lyp empiricaldispersion=gd3bj jul-cc-pVDZ
 ----------------------------------------------

 ---------------------
 benzene dimer 2.40425
 ---------------------
 Symbolic Z-matrix:
 Charge =  0 Multiplicity = 1

                         Standard orientation:
 ---------------------------------------------------------------------
 Center     Atomic      Atomic             Coordinates (Angstroms)
 Number     Number       Type             X           Y           Z
 ---------------------------------------------------------------------
      1          6           0       -1.391500    0.000000   -2.450000
      2          1           0       -2.471500    0.000000   -2.450000
      3          6           0       -0.695750    1.205074   -2.450000
      4          1           0       -1.235750    2.140382   -2.450000
      5          6           0       -0.695750   -1.205074   -2.450000
      6          1           0       -1.235750   -2.140382   -2.450000
      7          6           0        0.695750    1.205074   -2.450000
      8          1           0        1.235750    2.140382   -2.450000
      9          6           0        0.695750   -1.205074   -2.450000
     10          1           0        1.235750   -2.140382   -2.450000
     11          6           0        1.391500    0.000000   -2.450000
     12          1           0        2.471500    0.000000   -2.450000
     13          6           0        0.000000    0.000000    1.058500
     14          6           0        0.000000   -1.205074    1.754250
     15          1           0        0.000000   -2.140382    1.214250
     16          1           0        0.000000    0.000000   -0.021500
     17          6           0        0.000000   -1.205074    3.145750
     18          1           0        0.000000   -2.140382    3.685750
     19          6           0        0.000000    0.000000    3.841500
     20          1           0        0.000000    0.000000    4.921500
     21          6           0        0.000000    1.205074    3.145750
     22          1           0        0.000000    2.140382    3.685750
     23          6           0        0.000000    1.205074    1.754250
     24          1           0        0.000000    2.140382    1.214250
 ---------------------------------------------------------------------

 SCF Done:  E(RB3LYP) =  -464.585174221     A.U. after   11 cycles

 The electronic state is 1-A1.
 Alpha  occ. eigenvalues --  -10.19715 -10.19699 -10.19689 -10.19644 -10.19632
 Alpha  occ. eigenvalues --  -10.19611 -10.18638 -10.18612 -10.18566 -10.18466
 Alpha  occ. eigenvalues --  -10.18464 -10.18129  -0.86689  -0.85471  -0.75759
 Alpha  occ. eigenvalues --   -0.75733  -0.74630  -0.74540  -0.61296  -0.61292
 Alpha  occ. eigenvalues --   -0.60189  -0.60149  -0.53371  -0.52264  -0.46980
 Alpha  occ. eigenvalues --   -0.45942  -0.45651  -0.44505  -0.43107  -0.43076
 Alpha  occ. eigenvalues --   -0.42170  -0.42038  -0.37714  -0.36685  -0.35285
 Alpha  occ. eigenvalues --   -0.35264  -0.34206  -0.33802  -0.26630  -0.26528
 Alpha  occ. eigenvalues --   -0.25357  -0.25105
 Alpha virt. eigenvalues --   -0.02296  -0.02138  -0.00932  -0.00863  -0.00309
 Alpha virt. eigenvalues --    0.00989   0.01038   0.01667   0.02824   0.03073
 Alpha virt. eigenvalues --    0.03835   0.03848   0.05210   0.05534   0.05616

 Mulliken charges:
               1
     1  C    0.238601
     2  H   -0.212358
     3  C    0.206700
     4  H   -0.212947
     5  C    0.206700
     6  H   -0.212947
     7  C    0.206700
     8  H   -0.212947
     9  C    0.206700
    10  H   -0.212947
    11  C    0.238601
    12  H   -0.212358
    13  C    0.604496
    14  C    0.232705
    15  H   -0.191230
    16  H   -0.429488
    17  C    0.072769
    18  H   -0.199545
    19  C    0.170922
    20  H   -0.202827
    21  C    0.072769
    22  H   -0.199545
    23  C    0.232705
    24  H   -0.191230
 Sum of Mulliken charges =   0.00000

 Dipole moment (field-independent basis, Debye):
    X=              0.0000    Y=              0.0000    Z=             -0.5262  Tot=              0.5262
 Quadrupole moment (field-independent basis, Debye-Ang):
   XX=            -72.0474   YY=            -65.2851   ZZ=            -73.1503
   XY=              0.0000   XZ=              0.0000   YZ=              0.0000

 Normal termination of Gaussian 09 at Sun Mar 19 00:47:12 2017.
