 Gaussian 09, Revision D.01,
 Gaussian 09:  EM64L-G09RevD.01 24-Apr-2013

 --------------------
 #p m062x may-cc-pVQZ
 --------------------

 ---------------------
 benzene dimer 2.00425
 ---------------------
 Symbolic Z-matrix:
 Charge =  0 Multiplicity = 1

                         Standard orientation:
 ---------------------------------------------------------------------
 Center     Atomic      Atomic             Coordinates (Angstroms)
 Number     Number       Type             X           Y           Z
 ---------------------------------------------------------------------
      1          6           0       -1.391500    0.000000   -2.250000
      2          1           0       -2.471500    0.000000   -2.250000
      3          6           0       -0.695750    1.205074   -2.250000
      4          1           0       -1.235750    2.140382   -2.250000
      5          6           0       -0.695750   -1.205074   -2.250000
      6          1           0       -1.235750   -2.140382   -2.250000
      7          6           0        0.695750    1.205074   -2.250000
      8          1           0        1.235750    2.140382   -2.250000
      9          6           0        0.695750   -1.205074   -2.250000
     10          1           0        1.235750   -2.140382   -2.250000
     11          6           0        1.391500    0.000000   -2.250000
     12          1           0        2.471500    0.000000   -2.250000
     13          6           0        0.000000    0.000000    0.858500
     14          6           0        0.000000   -1.205074    1.554250
     15          1           0        0.000000   -2.140382    1.014250
     16          1           0        0.000000    0.000000   -0.221500
     17          6           0        0.000000   -1.205074    2.945750
     18          1           0        0.000000   -2.140382    3.485750
     19          6           0        0.000000    0.000000    3.641500
     20          1           0        0.000000    0.000000    4.721500
     21          6           0        0.000000    1.205074    2.945750
     22          1           0        0.000000    2.140382    3.485750
     23          6           0        0.000000    1.205074    1.554250
     24          1           0        0.000000    2.140382    1.014250
 ---------------------------------------------------------------------

 SCF Done:  E(RM062X) =  -464.475737154     A.U. after   11 cycles

 The electronic state is 1-A1.
 Alpha  occ. eigenvalues --  -10.54953 -10.54921 -10.54907 -10.54838 -10.54823
 Alpha  occ. eigenvalues --  -10.54790 -10.53479 -10.53440 -10.53361 -10.53234
 Alpha  occ. eigenvalues --  -10.53229 -10.52685  -0.96929  -0.95099  -0.85114
 Alpha  occ. eigenvalues --   -0.85071  -0.83505  -0.83373  -0.69348  -0.69344
 Alpha  occ. eigenvalues --   -0.67802  -0.67785  -0.60960  -0.59410  -0.54084
 Alpha  occ. eigenvalues --   -0.52773  -0.52047  -0.50445  -0.49637  -0.49587
 Alpha  occ. eigenvalues --   -0.48885  -0.48124  -0.43932  -0.43228  -0.40996
 Alpha  occ. eigenvalues --   -0.40969  -0.39481  -0.38667  -0.32137  -0.31838
 Alpha  occ. eigenvalues --   -0.30133  -0.29603
 Alpha virt. eigenvalues --   -0.00348   0.00592   0.00635   0.00881   0.00967
 Alpha virt. eigenvalues --    0.01136   0.02323   0.02407   0.02616   0.02642
 Alpha virt. eigenvalues --    0.02848   0.03264   0.03934   0.04384   0.04524

 Mulliken charges:
               1
     1  C   -0.415867
     2  H    0.492461
     3  C   -0.532222
     4  H    0.495544
     5  C   -0.532222
     6  H    0.495544
     7  C   -0.532222
     8  H    0.495544
     9  C   -0.532222
    10  H    0.495544
    11  C   -0.415867
    12  H    0.492461
    13  C   -0.377544
    14  C   -0.505349
    15  H    0.501829
    16  H    0.268551
    17  C   -0.372197
    18  H    0.454788
    19  C   -0.485444
    20  H    0.429817
    21  C   -0.372197
    22  H    0.454788
    23  C   -0.505349
    24  H    0.501829
 Sum of Mulliken charges =   0.00000

 Dipole moment (field-independent basis, Debye):
    X=              0.0000    Y=              0.0000    Z=             -0.7170  Tot=              0.7170
 Quadrupole moment (field-independent basis, Debye-Ang):
   XX=            -71.4855   YY=            -64.3024   ZZ=            -72.8009
   XY=              0.0000   XZ=              0.0000   YZ=              0.0000

 1\1\GINC-HOLY2A14108\SP\RM062X\May-CC-pVQZ\C12H12\ROOT\19-Mar-2017\0\\
 #p m062x may-cc-pVQZ\\benzene dimer 2.00425\\0,1\C,0,1.3915,0.,2.00425
 \H,0,2.4715,0.,2.00425\C,0,0.69575,1.2050743494,2.00425\H,0,1.23575,2.
 1403817855,2.00425\C,0,0.69575,-1.2050743494,2.00425\H,0,1.23575,-2.14
 03817855,2.00425\C,0,-0.69575,1.2050743494,2.00425\H,0,-1.23575,2.1403
 817855,2.00425\C,0,-0.69575,-1.2050743494,2.00425\H,0,-1.23575,-2.1403
 817855,2.00425\C,0,-1.3915,0.,2.00425\H,0,-2.4715,0.,2.00425\C,0,0.,0.
 ,-1.10425\C,0,0.,-1.2050743494,-1.8\H,0,0.,-2.1403817855,-1.26\H,0,0.,

 Normal termination of Gaussian 09 at Sun Mar 19 03:32:27 2017.
