 Gaussian 09, Revision D.01,
 Gaussian 09:  EM64L-G09RevD.01 24-Apr-2013

 -------------------------------------------
 #p pbe1pbe empiricaldispersion=gd3bj 6-31g*
 -------------------------------------------

 ---------------------
 benzene dimer 3.10425
 ---------------------
 Symbolic Z-matrix:
 Charge =  0 Multiplicity = 1

                         Standard orientation:
 ---------------------------------------------------------------------
 Center     Atomic      Atomic             Coordinates (Angstroms)
 Number     Number       Type             X           Y           Z
 ---------------------------------------------------------------------
      1          6           0       -1.391500    0.000000   -2.800000
      2          1           0       -2.471500    0.000000   -2.800000
      3          6           0       -0.695750    1.205074   -2.800000
      4          1           0       -1.235750    2.140382   -2.800000
      5          6           0       -0.695750   -1.205074   -2.800000
      6          1           0       -1.235750   -2.140382   -2.800000
      7          6           0        0.695750    1.205074   -2.800000
      8          1           0        1.235750    2.140382   -2.800000
      9          6           0        0.695750   -1.205074   -2.800000
     10          1           0        1.235750   -2.140382   -2.800000
     11          6           0        1.391500    0.000000   -2.800000
     12          1           0        2.471500    0.000000   -2.800000
     13          6           0        0.000000    0.000000    1.408500
     14          6           0        0.000000   -1.205074    2.104250
     15          1           0        0.000000   -2.140382    1.564250
     16          1           0        0.000000    0.000000    0.328500
     17          6           0        0.000000   -1.205074    3.495750
     18          1           0        0.000000   -2.140382    4.035750
     19          6           0        0.000000    0.000000    4.191500
     20          1           0        0.000000    0.000000    5.271500
     21          6           0        0.000000    1.205074    3.495750
     22          1           0        0.000000    2.140382    4.035750
     23          6           0        0.000000    1.205074    2.104250
     24          1           0        0.000000    2.140382    1.564250
 ---------------------------------------------------------------------

 SCF Done:  E(RPBE1PBE) =  -463.950290784     A.U. after   12 cycles

 The electronic state is 1-A1.
 Alpha  occ. eigenvalues --  -10.23840 -10.23815 -10.23806 -10.23753 -10.23744
 Alpha  occ. eigenvalues --  -10.23719 -10.23017 -10.22978 -10.22937 -10.22877
 Alpha  occ. eigenvalues --  -10.22870 -10.22681  -0.87855  -0.86960  -0.76775
 Alpha  occ. eigenvalues --   -0.76759  -0.75922  -0.75853  -0.62036  -0.62032
 Alpha  occ. eigenvalues --   -0.61189  -0.61143  -0.53983  -0.53119  -0.47613
 Alpha  occ. eigenvalues --   -0.46767  -0.45684  -0.44805  -0.43338  -0.43317
 Alpha  occ. eigenvalues --   -0.42522  -0.42426  -0.37935  -0.37030  -0.35312
 Alpha  occ. eigenvalues --   -0.35298  -0.34486  -0.34339  -0.26128  -0.26112
 Alpha  occ. eigenvalues --   -0.25262  -0.25182
 Alpha virt. eigenvalues --    0.00603   0.00614   0.01457   0.01510   0.10088
 Alpha virt. eigenvalues --    0.10865   0.15690   0.15801   0.16436   0.16444
 Alpha virt. eigenvalues --    0.17321   0.18180   0.19492   0.19499   0.20100

 Mulliken charges:
               1
     1  C   -0.168339
     2  H    0.171603
     3  C   -0.170602
     4  H    0.170565
     5  C   -0.170602
     6  H    0.170565
     7  C   -0.170602
     8  H    0.170565
     9  C   -0.170602
    10  H    0.170565
    11  C   -0.168339
    12  H    0.171603
    13  C   -0.175135
    14  C   -0.170829
    15  H    0.166034
    16  H    0.189106
    17  C   -0.169009
    18  H    0.165430
    19  C   -0.169312
    20  H    0.165709
    21  C   -0.169009
    22  H    0.165430
    23  C   -0.170829
    24  H    0.166034
 Sum of Mulliken charges =   0.00000

 Dipole moment (field-independent basis, Debye):
    X=              0.0000    Y=              0.0000    Z=             -0.3546  Tot=              0.3546
 Quadrupole moment (field-independent basis, Debye-Ang):
   XX=            -69.4990   YY=            -61.8442   ZZ=            -70.1165
   XY=              0.0000   XZ=              0.0000   YZ=              0.0000

 Normal termination of Gaussian 09 at Sun Mar 19 01:35:15 2017.
