 Gaussian 09, Revision D.01,
 Gaussian 09:  EM64L-G09RevD.01 24-Apr-2013

 ----------------------------------------------
 #p b3lyp empiricaldispersion=gd3bj jul-cc-pVDZ
 ----------------------------------------------

 ---------------------
 benzene dimer 4.40425
 ---------------------
 Symbolic Z-matrix:
 Charge =  0 Multiplicity = 1

                         Standard orientation:
 ---------------------------------------------------------------------
 Center     Atomic      Atomic             Coordinates (Angstroms)
 Number     Number       Type             X           Y           Z
 ---------------------------------------------------------------------
      1          6           0       -1.391500    0.000000   -3.450000
      2          1           0       -2.471500    0.000000   -3.450000
      3          6           0       -0.695750    1.205074   -3.450000
      4          1           0       -1.235750    2.140382   -3.450000
      5          6           0       -0.695750   -1.205074   -3.450000
      6          1           0       -1.235750   -2.140382   -3.450000
      7          6           0        0.695750    1.205074   -3.450000
      8          1           0        1.235750    2.140382   -3.450000
      9          6           0        0.695750   -1.205074   -3.450000
     10          1           0        1.235750   -2.140382   -3.450000
     11          6           0        1.391500    0.000000   -3.450000
     12          1           0        2.471500    0.000000   -3.450000
     13          6           0        0.000000    0.000000    2.058500
     14          6           0        0.000000   -1.205074    2.754250
     15          1           0        0.000000   -2.140382    2.214250
     16          1           0        0.000000    0.000000    0.978500
     17          6           0        0.000000   -1.205074    4.145750
     18          1           0        0.000000   -2.140382    4.685750
     19          6           0        0.000000    0.000000    4.841500
     20          1           0        0.000000    0.000000    5.921500
     21          6           0        0.000000    1.205074    4.145750
     22          1           0        0.000000    2.140382    4.685750
     23          6           0        0.000000    1.205074    2.754250
     24          1           0        0.000000    2.140382    2.214250
 ---------------------------------------------------------------------

 SCF Done:  E(RB3LYP) =  -464.580951026     A.U. after   10 cycles

 The electronic state is 1-A1.
 Alpha  occ. eigenvalues --  -10.19420 -10.19403 -10.19400 -10.19348 -10.19345
 Alpha  occ. eigenvalues --  -10.19320 -10.19059 -10.19035 -10.19008 -10.18972
 Alpha  occ. eigenvalues --  -10.18970 -10.18905  -0.86333  -0.85952  -0.75445
 Alpha  occ. eigenvalues --   -0.75440  -0.75075  -0.75052  -0.61019  -0.61018
 Alpha  occ. eigenvalues --   -0.60648  -0.60634  -0.53084  -0.52707  -0.46736
 Alpha  occ. eigenvalues --   -0.46361  -0.45366  -0.44988  -0.42821  -0.42814
 Alpha  occ. eigenvalues --   -0.42461  -0.42418  -0.37516  -0.37132  -0.35014
 Alpha  occ. eigenvalues --   -0.35009  -0.34651  -0.34615  -0.26146  -0.26139
 Alpha  occ. eigenvalues --   -0.25774  -0.25749
 Alpha virt. eigenvalues --   -0.01830  -0.01818  -0.01446  -0.01439  -0.00274
 Alpha virt. eigenvalues --    0.00912   0.01269   0.01725   0.02358   0.02409
 Alpha virt. eigenvalues --    0.03873   0.03927   0.04409   0.04565   0.05489

 Mulliken charges:
               1
     1  C    0.195018
     2  H   -0.200885
     3  C    0.204303
     4  H   -0.201235
     5  C    0.204303
     6  H   -0.201235
     7  C    0.204303
     8  H   -0.201235
     9  C    0.204303
    10  H   -0.201235
    11  C    0.195018
    12  H   -0.200885
    13  C    0.324395
    14  C    0.128529
    15  H   -0.196643
    16  H   -0.196896
    17  C    0.229850
    18  H   -0.200680
    19  C    0.149276
    20  H   -0.199426
    21  C    0.229850
    22  H   -0.200680
    23  C    0.128529
    24  H   -0.196643
 Sum of Mulliken charges =   0.00000

 Dipole moment (field-independent basis, Debye):
    X=              0.0000    Y=              0.0000    Z=             -0.1378  Tot=              0.1378
 Quadrupole moment (field-independent basis, Debye-Ang):
   XX=            -72.3407   YY=            -65.1503   ZZ=            -72.7641
   XY=              0.0000   XZ=              0.0000   YZ=              0.0000

 1\1\GINC-HOLY2A14108\SP\RB3LYP\Jul-CC-pVDZ\C12H12\ROOT\19-Mar-2017\0\\
 #p b3lyp empiricaldispersion=gd3bj jul-cc-pVDZ\\benzene dimer 4.40425\
 \0,1\C,0,1.3915,0.,4.40425\H,0,2.4715,0.,4.40425\C,0,0.69575,1.2050743
 494,4.40425\H,0,1.23575,2.1403817855,4.40425\C,0,0.69575,-1.2050743494
 ,4.40425\H,0,1.23575,-2.1403817855,4.40425\C,0,-0.69575,1.2050743494,4
 .40425\H,0,-1.23575,2.1403817855,4.40425\C,0,-0.69575,-1.2050743494,4.
 40425\H,0,-1.23575,-2.1403817855,4.40425\C,0,-1.3915,0.,4.40425\H,0,-2
 .4715,0.,4.40425\C,0,0.,0.,-1.10425\C,0,0.,-1.2050743494,-1.8\H,0,0.,-

 Normal termination of Gaussian 09 at Sun Mar 19 00:56:44 2017.
