 Gaussian 09, Revision D.01,
 Gaussian 09:  EM64L-G09RevD.01 24-Apr-2013

 ----------------------------------------------
 #p b3lyp empiricaldispersion=gd3bj jul-cc-pVDZ
 ----------------------------------------------

 ---------------------
 benzene dimer 2.60425
 ---------------------
 Symbolic Z-matrix:
 Charge =  0 Multiplicity = 1

                         Standard orientation:
 ---------------------------------------------------------------------
 Center     Atomic      Atomic             Coordinates (Angstroms)
 Number     Number       Type             X           Y           Z
 ---------------------------------------------------------------------
      1          6           0       -1.391500    0.000000   -2.550000
      2          1           0       -2.471500    0.000000   -2.550000
      3          6           0       -0.695750    1.205074   -2.550000
      4          1           0       -1.235750    2.140382   -2.550000
      5          6           0       -0.695750   -1.205074   -2.550000
      6          1           0       -1.235750   -2.140382   -2.550000
      7          6           0        0.695750    1.205074   -2.550000
      8          1           0        1.235750    2.140382   -2.550000
      9          6           0        0.695750   -1.205074   -2.550000
     10          1           0        1.235750   -2.140382   -2.550000
     11          6           0        1.391500    0.000000   -2.550000
     12          1           0        2.471500    0.000000   -2.550000
     13          6           0        0.000000    0.000000    1.158500
     14          6           0        0.000000   -1.205074    1.854250
     15          1           0        0.000000   -2.140382    1.314250
     16          1           0        0.000000    0.000000    0.078500
     17          6           0        0.000000   -1.205074    3.245750
     18          1           0        0.000000   -2.140382    3.785750
     19          6           0        0.000000    0.000000    3.941500
     20          1           0        0.000000    0.000000    5.021500
     21          6           0        0.000000    1.205074    3.245750
     22          1           0        0.000000    2.140382    3.785750
     23          6           0        0.000000    1.205074    1.854250
     24          1           0        0.000000    2.140382    1.314250
 ---------------------------------------------------------------------

 SCF Done:  E(RB3LYP) =  -464.584998124     A.U. after   11 cycles

 The electronic state is 1-A1.
 Alpha  occ. eigenvalues --  -10.19664 -10.19649 -10.19638 -10.19593 -10.19582
 Alpha  occ. eigenvalues --  -10.19561 -10.18718 -10.18690 -10.18647 -10.18567
 Alpha  occ. eigenvalues --  -10.18564 -10.18304  -0.86610  -0.85564  -0.75697
 Alpha  occ. eigenvalues --   -0.75675  -0.74713  -0.74636  -0.61245  -0.61241
 Alpha  occ. eigenvalues --   -0.60274  -0.60234  -0.53311  -0.52335  -0.46936
 Alpha  occ. eigenvalues --   -0.46000  -0.45598  -0.44595  -0.43051  -0.43024
 Alpha  occ. eigenvalues --   -0.42139  -0.42116  -0.37736  -0.36767  -0.35234
 Alpha  occ. eigenvalues --   -0.35217  -0.34289  -0.34011  -0.26508  -0.26450
 Alpha  occ. eigenvalues --   -0.25434  -0.25250
 Alpha virt. eigenvalues --   -0.02198  -0.02077  -0.01032  -0.00982  -0.00302
 Alpha virt. eigenvalues --    0.00965   0.01048   0.01673   0.02769   0.03034
 Alpha virt. eigenvalues --    0.03860   0.03866   0.05213   0.05412   0.05594

 Mulliken charges:
               1
     1  C    0.231172
     2  H   -0.211133
     3  C    0.205759
     4  H   -0.210742
     5  C    0.205759
     6  H   -0.210742
     7  C    0.205759
     8  H   -0.210742
     9  C    0.205759
    10  H   -0.210742
    11  C    0.231172
    12  H   -0.211133
    13  C    0.491895
    14  C    0.239838
    15  H   -0.192197
    16  H   -0.352490
    17  C    0.088564
    18  H   -0.199278
    19  C    0.168859
    20  H   -0.202265
    21  C    0.088564
    22  H   -0.199278
    23  C    0.239838
    24  H   -0.192197
 Sum of Mulliken charges =   0.00000

 Dipole moment (field-independent basis, Debye):
    X=              0.0000    Y=              0.0000    Z=             -0.4548  Tot=              0.4548
 Quadrupole moment (field-independent basis, Debye-Ang):
   XX=            -72.1169   YY=            -65.2635   ZZ=            -73.0384
   XY=              0.0000   XZ=              0.0000   YZ=              0.0000

 Normal termination of Gaussian 09 at Sun Mar 19 00:48:46 2017.
