 Gaussian 09, Revision D.01,
 Gaussian 09:  EM64L-G09RevD.01 24-Apr-2013

 ------------------------------------------
 #p b3lyp empiricaldispersion=gd3bj cc-pVQZ
 ------------------------------------------

 ---------------------
 benzene dimer 2.20425
 ---------------------
 Symbolic Z-matrix:
 Charge =  0 Multiplicity = 1

                         Standard orientation:
 ---------------------------------------------------------------------
 Center     Atomic      Atomic             Coordinates (Angstroms)
 Number     Number       Type             X           Y           Z
 ---------------------------------------------------------------------
      1          6           0       -1.391500    0.000000   -2.350000
      2          1           0       -2.471500    0.000000   -2.350000
      3          6           0       -0.695750    1.205074   -2.350000
      4          1           0       -1.235750    2.140382   -2.350000
      5          6           0       -0.695750   -1.205074   -2.350000
      6          1           0       -1.235750   -2.140382   -2.350000
      7          6           0        0.695750    1.205074   -2.350000
      8          1           0        1.235750    2.140382   -2.350000
      9          6           0        0.695750   -1.205074   -2.350000
     10          1           0        1.235750   -2.140382   -2.350000
     11          6           0        1.391500    0.000000   -2.350000
     12          1           0        2.471500    0.000000   -2.350000
     13          6           0        0.000000    0.000000    0.958500
     14          6           0        0.000000   -1.205074    1.654250
     15          1           0        0.000000   -2.140382    1.114250
     16          1           0        0.000000    0.000000   -0.121500
     17          6           0        0.000000   -1.205074    3.045750
     18          1           0        0.000000   -2.140382    3.585750
     19          6           0        0.000000    0.000000    3.741500
     20          1           0        0.000000    0.000000    4.821500
     21          6           0        0.000000    1.205074    3.045750
     22          1           0        0.000000    2.140382    3.585750
     23          6           0        0.000000    1.205074    1.654250
     24          1           0        0.000000    2.140382    1.114250
 ---------------------------------------------------------------------

 SCF Done:  E(RB3LYP) =  -464.741839298     A.U. after   17 cycles

 The electronic state is 1-A1.
 Alpha  occ. eigenvalues --  -10.18197 -10.18173 -10.18163 -10.18112 -10.18101
 Alpha  occ. eigenvalues --  -10.18077 -10.16920 -10.16890 -10.16834 -10.16718
 Alpha  occ. eigenvalues --  -10.16714 -10.16299  -0.86487  -0.84980  -0.75557
 Alpha  occ. eigenvalues --   -0.75525  -0.74186  -0.74078  -0.61194  -0.61190
 Alpha  occ. eigenvalues --   -0.59864  -0.59825  -0.53447  -0.52117  -0.46984
 Alpha  occ. eigenvalues --   -0.45784  -0.45682  -0.44298  -0.43171  -0.43133
 Alpha  occ. eigenvalues --   -0.42186  -0.41879  -0.37626  -0.36531  -0.35402
 Alpha  occ. eigenvalues --   -0.35379  -0.34105  -0.33498  -0.26786  -0.26628
 Alpha  occ. eigenvalues --   -0.25202  -0.24858
 Alpha virt. eigenvalues --   -0.02256  -0.02099  -0.00596  -0.00550   0.01833
 Alpha virt. eigenvalues --    0.03933   0.03985   0.05133   0.06565   0.06773
 Alpha virt. eigenvalues --    0.07862   0.08399   0.10211   0.10592   0.10820

 Mulliken charges:
               1
     1  C   -0.104846
     2  H    0.113716
     3  C   -0.123494
     4  H    0.119035
     5  C   -0.123494
     6  H    0.119035
     7  C   -0.123494
     8  H    0.119035
     9  C   -0.123494
    10  H    0.119035
    11  C   -0.104846
    12  H    0.113716
    13  C   -0.109774
    14  C   -0.135140
    15  H    0.108929
    16  H    0.166152
    17  C   -0.114967
    18  H    0.112228
    19  C   -0.111353
    20  H    0.112973
    21  C   -0.114967
    22  H    0.112228
    23  C   -0.135140
    24  H    0.108929
 Sum of Mulliken charges =   0.00000

 Dipole moment (field-independent basis, Debye):
    X=              0.0000    Y=              0.0000    Z=             -0.6194  Tot=              0.6194
 Quadrupole moment (field-independent basis, Debye-Ang):
   XX=            -71.5250   YY=            -64.7436   ZZ=            -72.8005
   XY=              0.0000   XZ=              0.0000   YZ=              0.0000

 Normal termination of Gaussian 09 at Sun Mar 19 02:23:50 2017.
