 Gaussian 09, Revision D.01,
 Gaussian 09:  EM64L-G09RevD.01 24-Apr-2013

 ----------------------------------------------
 #p b3lyp empiricaldispersion=gd3bj may-cc-pVQZ
 ----------------------------------------------

 ---------------------
 benzene dimer 2.50425
 ---------------------
 Symbolic Z-matrix:
 Charge =  0 Multiplicity = 1

                         Standard orientation:
 ---------------------------------------------------------------------
 Center     Atomic      Atomic             Coordinates (Angstroms)
 Number     Number       Type             X           Y           Z
 ---------------------------------------------------------------------
      1          6           0       -1.391500    0.000000   -2.500000
      2          1           0       -2.471500    0.000000   -2.500000
      3          6           0       -0.695750    1.205074   -2.500000
      4          1           0       -1.235750    2.140382   -2.500000
      5          6           0       -0.695750   -1.205074   -2.500000
      6          1           0       -1.235750   -2.140382   -2.500000
      7          6           0        0.695750    1.205074   -2.500000
      8          1           0        1.235750    2.140382   -2.500000
      9          6           0        0.695750   -1.205074   -2.500000
     10          1           0        1.235750   -2.140382   -2.500000
     11          6           0        1.391500    0.000000   -2.500000
     12          1           0        2.471500    0.000000   -2.500000
     13          6           0        0.000000    0.000000    1.108500
     14          6           0        0.000000   -1.205074    1.804250
     15          1           0        0.000000   -2.140382    1.264250
     16          1           0        0.000000    0.000000    0.028500
     17          6           0        0.000000   -1.205074    3.195750
     18          1           0        0.000000   -2.140382    3.735750
     19          6           0        0.000000    0.000000    3.891500
     20          1           0        0.000000    0.000000    4.971500
     21          6           0        0.000000    1.205074    3.195750
     22          1           0        0.000000    2.140382    3.735750
     23          6           0        0.000000    1.205074    1.804250
     24          1           0        0.000000    2.140382    1.264250
 ---------------------------------------------------------------------

 SCF Done:  E(RB3LYP) =  -464.743493575     A.U. after   10 cycles

 The electronic state is 1-A1.
 Alpha  occ. eigenvalues --  -10.18185 -10.18161 -10.18151 -10.18099 -10.18089
 Alpha  occ. eigenvalues --  -10.18065 -10.17169 -10.17135 -10.17086 -10.17005
 Alpha  occ. eigenvalues --  -10.16999 -10.16720  -0.86402  -0.85254  -0.75509
 Alpha  occ. eigenvalues --   -0.75484  -0.74434  -0.74348  -0.61163  -0.61158
 Alpha  occ. eigenvalues --   -0.60107  -0.60064  -0.53388  -0.52327  -0.46955
 Alpha  occ. eigenvalues --   -0.45951  -0.45654  -0.44560  -0.43126  -0.43096
 Alpha  occ. eigenvalues --   -0.42172  -0.42105  -0.37798  -0.36776  -0.35370
 Alpha  occ. eigenvalues --   -0.35350  -0.34341  -0.34003  -0.26627  -0.26553
 Alpha  occ. eigenvalues --   -0.25441  -0.25226
 Alpha virt. eigenvalues --   -0.02339  -0.02204  -0.01061  -0.01043  -0.01009
 Alpha virt. eigenvalues --    0.00195   0.00372   0.00894   0.01913   0.02211
 Alpha virt. eigenvalues --    0.02834   0.02953   0.03811   0.03980   0.04357

 Mulliken charges:
               1
     1  C   -0.182426
     2  H    0.156845
     3  C   -0.136972
     4  H    0.150752
     5  C   -0.136972
     6  H    0.150752
     7  C   -0.136972
     8  H    0.150752
     9  C   -0.136972
    10  H    0.150752
    11  C   -0.182426
    12  H    0.156845
    13  C   -0.217493
    14  C   -0.118325
    15  H    0.177818
    16  H    0.112531
    17  C   -0.146948
    18  H    0.158251
    19  C   -0.192924
    20  H    0.152334
    21  C   -0.146948
    22  H    0.158251
    23  C   -0.118325
    24  H    0.177818
 Sum of Mulliken charges =   0.00000

 Dipole moment (field-independent basis, Debye):
    X=              0.0000    Y=              0.0000    Z=             -0.4923  Tot=              0.4923
 Quadrupole moment (field-independent basis, Debye-Ang):
   XX=            -71.9185   YY=            -64.9574   ZZ=            -72.9728
   XY=              0.0000   XZ=              0.0000   YZ=              0.0000

 Normal termination of Gaussian 09 at Sun Mar 19 02:48:18 2017.
