 Gaussian 09, Revision D.01,
 Gaussian 09:  EM64L-G09RevD.01 24-Apr-2013

 -------------
 #p mp2 6-31g*
 -------------

 ---------------------
 benzene dimer 4.90425
 ---------------------
 Symbolic Z-matrix:
 Charge =  0 Multiplicity = 1

                         Standard orientation:
 ---------------------------------------------------------------------
 Center     Atomic      Atomic             Coordinates (Angstroms)
 Number     Number       Type             X           Y           Z
 ---------------------------------------------------------------------
      1          6           0       -1.391500    0.000000   -3.700000
      2          1           0       -2.471500    0.000000   -3.700000
      3          6           0       -0.695750    1.205074   -3.700000
      4          1           0       -1.235750    2.140382   -3.700000
      5          6           0       -0.695750   -1.205074   -3.700000
      6          1           0       -1.235750   -2.140382   -3.700000
      7          6           0        0.695750    1.205074   -3.700000
      8          1           0        1.235750    2.140382   -3.700000
      9          6           0        0.695750   -1.205074   -3.700000
     10          1           0        1.235750   -2.140382   -3.700000
     11          6           0        1.391500    0.000000   -3.700000
     12          1           0        2.471500    0.000000   -3.700000
     13          6           0        0.000000    0.000000    2.308500
     14          6           0        0.000000   -1.205074    3.004250
     15          1           0        0.000000   -2.140382    2.464250
     16          1           0        0.000000    0.000000    1.228500
     17          6           0        0.000000   -1.205074    4.395750
     18          1           0        0.000000   -2.140382    4.935750
     19          6           0        0.000000    0.000000    5.091500
     20          1           0        0.000000    0.000000    6.171500
     21          6           0        0.000000    1.205074    4.395750
     22          1           0        0.000000    2.140382    4.935750
     23          6           0        0.000000    1.205074    3.004250
     24          1           0        0.000000    2.140382    2.464250
 ---------------------------------------------------------------------

 SCF Done:  E(RHF) =  -461.405981360     A.U. after   12 cycles
 E2 =    -0.1509135600D+01 EUMP2 =    -0.46291511696030D+03

 The electronic state is 1-A1.
 Alpha  occ. eigenvalues --  -11.23292 -11.23236 -11.23234 -11.23115 -11.23112
 Alpha  occ. eigenvalues --  -11.23055 -11.22954 -11.22897 -11.22871 -11.22769
 Alpha  occ. eigenvalues --  -11.22766 -11.22688  -1.14604  -1.14253  -1.01054
 Alpha  occ. eigenvalues --   -1.01050  -1.00713  -1.00693  -0.81967  -0.81966
 Alpha  occ. eigenvalues --   -0.81624  -0.81613  -0.70572  -0.70223  -0.64066
 Alpha  occ. eigenvalues --   -0.63719  -0.61322  -0.60974  -0.58409  -0.58403
 Alpha  occ. eigenvalues --   -0.58075  -0.58040  -0.49720  -0.49367  -0.49029
 Alpha  occ. eigenvalues --   -0.49025  -0.48692  -0.48664  -0.33112  -0.33104
 Alpha  occ. eigenvalues --   -0.32771  -0.32743
 Alpha virt. eigenvalues --    0.14701   0.14706   0.15041   0.15064   0.23389
 Alpha virt. eigenvalues --    0.23736   0.29266   0.29283   0.29559   0.29684
 Alpha virt. eigenvalues --    0.33125   0.33136   0.33427   0.33497   0.33594

 Mulliken charges:
               1
     1  C   -0.200158
     2  H    0.200689
     3  C   -0.200525
     4  H    0.200270
     5  C   -0.200525
     6  H    0.200270
     7  C   -0.200525
     8  H    0.200270
     9  C   -0.200525
    10  H    0.200270
    11  C   -0.200158
    12  H    0.200689
    13  C   -0.202070
    14  C   -0.200432
    15  H    0.199641
    16  H    0.207576
    17  C   -0.199888
    18  H    0.198683
    19  C   -0.200252
    20  H    0.198696
    21  C   -0.199888
    22  H    0.198683
    23  C   -0.200432
    24  H    0.199641
 Sum of Mulliken charges =   0.00000

 Dipole moment (field-independent basis, Debye):
    X=              0.0000    Y=              0.0000    Z=             -0.0943  Tot=              0.0943
 Quadrupole moment (field-independent basis, Debye-Ang):
   XX=            -71.1826   YY=            -62.7820   ZZ=            -71.6044
   XY=              0.0000   XZ=              0.0000   YZ=              0.0000

 Normal termination of Gaussian 09 at Sun Mar 19 00:58:19 2017.
