 Gaussian 09, Revision D.01,
 Gaussian 09:  EM64L-G09RevD.01 24-Apr-2013

 -----------------------------------------
 #p b3lyp empiricaldispersion=gd3bj 6-31g*
 -----------------------------------------

 ---------------------
 benzene dimer 2.30425
 ---------------------
 Symbolic Z-matrix:
 Charge =  0 Multiplicity = 1

                         Standard orientation:
 ---------------------------------------------------------------------
 Center     Atomic      Atomic             Coordinates (Angstroms)
 Number     Number       Type             X           Y           Z
 ---------------------------------------------------------------------
      1          6           0       -1.391500    0.000000   -2.400000
      2          1           0       -2.471500    0.000000   -2.400000
      3          6           0       -0.695750    1.205074   -2.400000
      4          1           0       -1.235750    2.140382   -2.400000
      5          6           0       -0.695750   -1.205074   -2.400000
      6          1           0       -1.235750   -2.140382   -2.400000
      7          6           0        0.695750    1.205074   -2.400000
      8          1           0        1.235750    2.140382   -2.400000
      9          6           0        0.695750   -1.205074   -2.400000
     10          1           0        1.235750   -2.140382   -2.400000
     11          6           0        1.391500    0.000000   -2.400000
     12          1           0        2.471500    0.000000   -2.400000
     13          6           0        0.000000    0.000000    1.008500
     14          6           0        0.000000   -1.205074    1.704250
     15          1           0        0.000000   -2.140382    1.164250
     16          1           0        0.000000    0.000000   -0.071500
     17          6           0        0.000000   -1.205074    3.095750
     18          1           0        0.000000   -2.140382    3.635750
     19          6           0        0.000000    0.000000    3.791500
     20          1           0        0.000000    0.000000    4.871500
     21          6           0        0.000000    1.205074    3.095750
     22          1           0        0.000000    2.140382    3.635750
     23          6           0        0.000000    1.205074    1.704250
     24          1           0        0.000000    2.140382    1.164250
 ---------------------------------------------------------------------

 SCF Done:  E(RB3LYP) =  -464.540341950     A.U. after   13 cycles

 The electronic state is 1-A1.
 Alpha  occ. eigenvalues --  -10.19112 -10.19090 -10.19076 -10.19032 -10.19016
 Alpha  occ. eigenvalues --  -10.18995 -10.17761 -10.17725 -10.17682 -10.17553
 Alpha  occ. eigenvalues --  -10.17549 -10.17097  -0.85549  -0.83989  -0.74749
 Alpha  occ. eigenvalues --   -0.74717  -0.73313  -0.73191  -0.60431  -0.60426
 Alpha  occ. eigenvalues --   -0.59030  -0.58967  -0.52655  -0.51243  -0.46489
 Alpha  occ. eigenvalues --   -0.45177  -0.44502  -0.43029  -0.42400  -0.42364
 Alpha  occ. eigenvalues --   -0.41196  -0.41045  -0.36565  -0.35249  -0.34591
 Alpha  occ. eigenvalues --   -0.34570  -0.33223  -0.32663  -0.25448  -0.25383
 Alpha  occ. eigenvalues --   -0.23888  -0.23634
 Alpha virt. eigenvalues --   -0.00193  -0.00157   0.01335   0.01393   0.08735
 Alpha virt. eigenvalues --    0.10424   0.13832   0.14313   0.15533   0.16068
 Alpha virt. eigenvalues --    0.16101   0.17523   0.18020   0.18133   0.19001

 Mulliken charges:
               1
     1  C   -0.126094
     2  H    0.133237
     3  C   -0.130605
     4  H    0.131978
     5  C   -0.130605
     6  H    0.131978
     7  C   -0.130605
     8  H    0.131978
     9  C   -0.130605
    10  H    0.131978
    11  C   -0.126094
    12  H    0.133237
    13  C   -0.120899
    14  C   -0.138311
    15  H    0.119851
    16  H    0.157486
    17  C   -0.129369
    18  H    0.122476
    19  C   -0.128509
    20  H    0.122850
    21  C   -0.129369
    22  H    0.122476
    23  C   -0.138311
    24  H    0.119851
 Sum of Mulliken charges =   0.00000

 Dipole moment (field-independent basis, Debye):
    X=              0.0000    Y=              0.0000    Z=             -0.6870  Tot=              0.6870
 Quadrupole moment (field-independent basis, Debye-Ang):
   XX=            -69.5385   YY=            -63.0348   ZZ=            -70.4483
   XY=              0.0000   XZ=              0.0000   YZ=              0.0000

 Normal termination of Gaussian 09 at Sun Mar 19 00:43:51 2017.
