 Gaussian 09, Revision D.01,
 Gaussian 09:  EM64L-G09RevD.01 24-Apr-2013

 --------------------
 #p m062x may-cc-pVQZ
 --------------------

 ---------------------
 benzene dimer 3.00425
 ---------------------
 Symbolic Z-matrix:
 Charge =  0 Multiplicity = 1

                         Standard orientation:
 ---------------------------------------------------------------------
 Center     Atomic      Atomic             Coordinates (Angstroms)
 Number     Number       Type             X           Y           Z
 ---------------------------------------------------------------------
      1          6           0       -1.391500    0.000000   -2.750000
      2          1           0       -2.471500    0.000000   -2.750000
      3          6           0       -0.695750    1.205074   -2.750000
      4          1           0       -1.235750    2.140382   -2.750000
      5          6           0       -0.695750   -1.205074   -2.750000
      6          1           0       -1.235750   -2.140382   -2.750000
      7          6           0        0.695750    1.205074   -2.750000
      8          1           0        1.235750    2.140382   -2.750000
      9          6           0        0.695750   -1.205074   -2.750000
     10          1           0        1.235750   -2.140382   -2.750000
     11          6           0        1.391500    0.000000   -2.750000
     12          1           0        2.471500    0.000000   -2.750000
     13          6           0        0.000000    0.000000    1.358500
     14          6           0        0.000000   -1.205074    2.054250
     15          1           0        0.000000   -2.140382    1.514250
     16          1           0        0.000000    0.000000    0.278500
     17          6           0        0.000000   -1.205074    3.445750
     18          1           0        0.000000   -2.140382    3.985750
     19          6           0        0.000000    0.000000    4.141500
     20          1           0        0.000000    0.000000    5.221500
     21          6           0        0.000000    1.205074    3.445750
     22          1           0        0.000000    2.140382    3.985750
     23          6           0        0.000000    1.205074    2.054250
     24          1           0        0.000000    2.140382    1.514250
 ---------------------------------------------------------------------

 SCF Done:  E(RM062X) =  -464.477471434     A.U. after   13 cycles

 The electronic state is 1-A1.
 Alpha  occ. eigenvalues --  -10.54668 -10.54634 -10.54625 -10.54551 -10.54541
 Alpha  occ. eigenvalues --  -10.54506 -10.53870 -10.53825 -10.53771 -10.53717
 Alpha  occ. eigenvalues --  -10.53709 -10.53549  -0.96437  -0.95580  -0.84752
 Alpha  occ. eigenvalues --   -0.84734  -0.83930  -0.83867  -0.69055  -0.69050
 Alpha  occ. eigenvalues --   -0.68237  -0.68199  -0.60579  -0.59749  -0.53835
 Alpha  occ. eigenvalues --   -0.53025  -0.51744  -0.50903  -0.49303  -0.49279
 Alpha  occ. eigenvalues --   -0.48514  -0.48465  -0.44472  -0.43643  -0.40708
 Alpha  occ. eigenvalues --   -0.40694  -0.39911  -0.39775  -0.31369  -0.31361
 Alpha  occ. eigenvalues --   -0.30521  -0.30415
 Alpha virt. eigenvalues --   -0.00302   0.00591   0.00773   0.01131   0.01186
 Alpha virt. eigenvalues --    0.01322   0.02127   0.02212   0.02219   0.02247
 Alpha virt. eigenvalues --    0.02956   0.03084   0.03836   0.04094   0.04113

 Mulliken charges:
               1
     1  C   -0.476760
     2  H    0.468578
     3  C   -0.471031
     4  H    0.469389
     5  C   -0.471031
     6  H    0.469389
     7  C   -0.471031
     8  H    0.469389
     9  C   -0.471031
    10  H    0.469389
    11  C   -0.476760
    12  H    0.468578
    13  C   -0.684457
    14  C   -0.395382
    15  H    0.472618
    16  H    0.489446
    17  C   -0.414956
    18  H    0.451453
    19  C   -0.438490
    20  H    0.428968
    21  C   -0.414956
    22  H    0.451453
    23  C   -0.395382
    24  H    0.472618
 Sum of Mulliken charges =   0.00000

 Dipole moment (field-independent basis, Debye):
    X=              0.0000    Y=              0.0000    Z=             -0.3565  Tot=              0.3565
 Quadrupole moment (field-independent basis, Debye-Ang):
   XX=            -71.8070   YY=            -64.1553   ZZ=            -72.3432
   XY=              0.0000   XZ=              0.0000   YZ=              0.0000

 Normal termination of Gaussian 09 at Sun Mar 19 03:55:55 2017.
