 Gaussian 09, Revision D.01,
 Gaussian 09:  EM64L-G09RevD.01 24-Apr-2013

 ------------------------------------------
 #p b3lyp empiricaldispersion=gd3bj cc-pVTZ
 ------------------------------------------

 ---------------------
 benzene dimer 2.30425
 ---------------------
 Symbolic Z-matrix:
 Charge =  0 Multiplicity = 1

                         Standard orientation:
 ---------------------------------------------------------------------
 Center     Atomic      Atomic             Coordinates (Angstroms)
 Number     Number       Type             X           Y           Z
 ---------------------------------------------------------------------
      1          6           0       -1.391500    0.000000   -2.400000
      2          1           0       -2.471500    0.000000   -2.400000
      3          6           0       -0.695750    1.205074   -2.400000
      4          1           0       -1.235750    2.140382   -2.400000
      5          6           0       -0.695750   -1.205074   -2.400000
      6          1           0       -1.235750   -2.140382   -2.400000
      7          6           0        0.695750    1.205074   -2.400000
      8          1           0        1.235750    2.140382   -2.400000
      9          6           0        0.695750   -1.205074   -2.400000
     10          1           0        1.235750   -2.140382   -2.400000
     11          6           0        1.391500    0.000000   -2.400000
     12          1           0        2.471500    0.000000   -2.400000
     13          6           0        0.000000    0.000000    1.008500
     14          6           0        0.000000   -1.205074    1.704250
     15          1           0        0.000000   -2.140382    1.164250
     16          1           0        0.000000    0.000000   -0.071500
     17          6           0        0.000000   -1.205074    3.095750
     18          1           0        0.000000   -2.140382    3.635750
     19          6           0        0.000000    0.000000    3.791500
     20          1           0        0.000000    0.000000    4.871500
     21          6           0        0.000000    1.205074    3.095750
     22          1           0        0.000000    2.140382    3.635750
     23          6           0        0.000000    1.205074    1.704250
     24          1           0        0.000000    2.140382    1.164250
 ---------------------------------------------------------------------

 SCF Done:  E(RB3LYP) =  -464.709212031     A.U. after   13 cycles

 The electronic state is 1-A1.
 Alpha  occ. eigenvalues --  -10.18360 -10.18339 -10.18327 -10.18279 -10.18266
 Alpha  occ. eigenvalues --  -10.18245 -10.17135 -10.17102 -10.17053 -10.16944
 Alpha  occ. eigenvalues --  -10.16940 -10.16575  -0.86363  -0.84945  -0.75455
 Alpha  occ. eigenvalues --   -0.75425  -0.74151  -0.74048  -0.61090  -0.61086
 Alpha  occ. eigenvalues --   -0.59821  -0.59777  -0.53306  -0.52036  -0.46880
 Alpha  occ. eigenvalues --   -0.45712  -0.45551  -0.44230  -0.43040  -0.43005
 Alpha  occ. eigenvalues --   -0.42015  -0.41811  -0.37569  -0.36446  -0.35275
 Alpha  occ. eigenvalues --   -0.35253  -0.34040  -0.33536  -0.26581  -0.26465
 Alpha  occ. eigenvalues --   -0.25108  -0.24821
 Alpha virt. eigenvalues --   -0.01920  -0.01816  -0.00404  -0.00385   0.03119
 Alpha virt. eigenvalues --    0.05216   0.05647   0.06878   0.08285   0.08558
 Alpha virt. eigenvalues --    0.09932   0.10364   0.11758   0.12268   0.12536

 Mulliken charges:
               1
     1  C   -0.094943
     2  H    0.106576
     3  C   -0.112062
     4  H    0.108389
     5  C   -0.112062
     6  H    0.108389
     7  C   -0.112062
     8  H    0.108389
     9  C   -0.112062
    10  H    0.108389
    11  C   -0.094943
    12  H    0.106576
    13  C   -0.038302
    14  C   -0.129977
    15  H    0.100120
    16  H    0.099820
    17  C   -0.101993
    18  H    0.102405
    19  C   -0.113775
    20  H    0.102574
    21  C   -0.101993
    22  H    0.102405
    23  C   -0.129977
    24  H    0.100120
 Sum of Mulliken charges =   0.00000

 Dipole moment (field-independent basis, Debye):
    X=              0.0000    Y=              0.0000    Z=             -0.5722  Tot=              0.5722
 Quadrupole moment (field-independent basis, Debye-Ang):
   XX=            -71.3222   YY=            -64.4967   ZZ=            -72.4944
   XY=              0.0000   XZ=              0.0000   YZ=              0.0000

 Normal termination of Gaussian 09 at Sun Mar 19 00:34:01 2017.
