 Gaussian 09, Revision D.01,
 Gaussian 09:  EM64L-G09RevD.01 24-Apr-2013

 -----------------------------------------
 #p b3lyp empiricaldispersion=gd3bj 6-31g*
 -----------------------------------------

 ---------------------
 benzene dimer 2.00425
 ---------------------
 Symbolic Z-matrix:
 Charge =  0 Multiplicity = 1

                         Standard orientation:
 ---------------------------------------------------------------------
 Center     Atomic      Atomic             Coordinates (Angstroms)
 Number     Number       Type             X           Y           Z
 ---------------------------------------------------------------------
      1          6           0       -1.391500    0.000000   -2.250000
      2          1           0       -2.471500    0.000000   -2.250000
      3          6           0       -0.695750    1.205074   -2.250000
      4          1           0       -1.235750    2.140382   -2.250000
      5          6           0       -0.695750   -1.205074   -2.250000
      6          1           0       -1.235750   -2.140382   -2.250000
      7          6           0        0.695750    1.205074   -2.250000
      8          1           0        1.235750    2.140382   -2.250000
      9          6           0        0.695750   -1.205074   -2.250000
     10          1           0        1.235750   -2.140382   -2.250000
     11          6           0        1.391500    0.000000   -2.250000
     12          1           0        2.471500    0.000000   -2.250000
     13          6           0        0.000000    0.000000    0.858500
     14          6           0        0.000000   -1.205074    1.554250
     15          1           0        0.000000   -2.140382    1.014250
     16          1           0        0.000000    0.000000   -0.221500
     17          6           0        0.000000   -1.205074    2.945750
     18          1           0        0.000000   -2.140382    3.485750
     19          6           0        0.000000    0.000000    3.641500
     20          1           0        0.000000    0.000000    4.721500
     21          6           0        0.000000    1.205074    2.945750
     22          1           0        0.000000    2.140382    3.485750
     23          6           0        0.000000    1.205074    1.554250
     24          1           0        0.000000    2.140382    1.014250
 ---------------------------------------------------------------------

 SCF Done:  E(RB3LYP) =  -464.537346023     A.U. after   13 cycles

 The electronic state is 1-A1.
 Alpha  occ. eigenvalues --  -10.19246 -10.19223 -10.19211 -10.19165 -10.19151
 Alpha  occ. eigenvalues --  -10.19130 -10.17566 -10.17535 -10.17484 -10.17301
 Alpha  occ. eigenvalues --  -10.17299 -10.16623  -0.85815  -0.83757  -0.74933
 Alpha  occ. eigenvalues --   -0.74890  -0.73105  -0.72957  -0.60576  -0.60572
 Alpha  occ. eigenvalues --   -0.58821  -0.58776  -0.52853  -0.51082  -0.46608
 Alpha  occ. eigenvalues --   -0.45065  -0.44657  -0.42806  -0.42565  -0.42521
 Alpha  occ. eigenvalues --   -0.41374  -0.40855  -0.36382  -0.35052  -0.34733
 Alpha  occ. eigenvalues --   -0.34709  -0.33014  -0.32033  -0.25785  -0.25604
 Alpha  occ. eigenvalues --   -0.23698  -0.23274
 Alpha virt. eigenvalues --   -0.00448  -0.00360   0.01592   0.01640   0.08522
 Alpha virt. eigenvalues --    0.10790   0.13502   0.14221   0.15818   0.15879
 Alpha virt. eigenvalues --    0.16361   0.17762   0.17927   0.18288   0.18927

 Mulliken charges:
               1
     1  C   -0.124508
     2  H    0.134669
     3  C   -0.130405
     4  H    0.133287
     5  C   -0.130405
     6  H    0.133287
     7  C   -0.130405
     8  H    0.133287
     9  C   -0.130405
    10  H    0.133287
    11  C   -0.124508
    12  H    0.134669
    13  C   -0.089861
    14  C   -0.143512
    15  H    0.115625
    16  H    0.139415
    17  C   -0.130263
    18  H    0.121032
    19  C   -0.128688
    20  H    0.121520
    21  C   -0.130263
    22  H    0.121032
    23  C   -0.143512
    24  H    0.115625
 Sum of Mulliken charges =   0.00000

 Dipole moment (field-independent basis, Debye):
    X=              0.0000    Y=              0.0000    Z=             -0.8712  Tot=              0.8712
 Quadrupole moment (field-independent basis, Debye-Ang):
   XX=            -69.4077   YY=            -63.1312   ZZ=            -70.6393
   XY=              0.0000   XZ=              0.0000   YZ=              0.0000

 Normal termination of Gaussian 09 at Sun Mar 19 00:41:14 2017.
