 Gaussian 09, Revision D.01,
 Gaussian 09:  EM64L-G09RevD.01 24-Apr-2013

 ------------------------------------------
 #p b3lyp empiricaldispersion=gd3bj cc-pVQZ
 ------------------------------------------

 ---------------------
 benzene dimer 4.40425
 ---------------------
 Symbolic Z-matrix:
 Charge =  0 Multiplicity = 1

                         Standard orientation:
 ---------------------------------------------------------------------
 Center     Atomic      Atomic             Coordinates (Angstroms)
 Number     Number       Type             X           Y           Z
 ---------------------------------------------------------------------
      1          6           0       -1.391500    0.000000   -3.450000
      2          1           0       -2.471500    0.000000   -3.450000
      3          6           0       -0.695750    1.205074   -3.450000
      4          1           0       -1.235750    2.140382   -3.450000
      5          6           0       -0.695750   -1.205074   -3.450000
      6          1           0       -1.235750   -2.140382   -3.450000
      7          6           0        0.695750    1.205074   -3.450000
      8          1           0        1.235750    2.140382   -3.450000
      9          6           0        0.695750   -1.205074   -3.450000
     10          1           0        1.235750   -2.140382   -3.450000
     11          6           0        1.391500    0.000000   -3.450000
     12          1           0        2.471500    0.000000   -3.450000
     13          6           0        0.000000    0.000000    2.058500
     14          6           0        0.000000   -1.205074    2.754250
     15          1           0        0.000000   -2.140382    2.214250
     16          1           0        0.000000    0.000000    0.978500
     17          6           0        0.000000   -1.205074    4.145750
     18          1           0        0.000000   -2.140382    4.685750
     19          6           0        0.000000    0.000000    4.841500
     20          1           0        0.000000    0.000000    5.921500
     21          6           0        0.000000    1.205074    4.145750
     22          1           0        0.000000    2.140382    4.685750
     23          6           0        0.000000    1.205074    2.754250
     24          1           0        0.000000    2.140382    2.214250
 ---------------------------------------------------------------------

 SCF Done:  E(RB3LYP) =  -464.738830508     A.U. after   19 cycles

 The electronic state is 1-A1.
 Alpha  occ. eigenvalues --  -10.17820 -10.17793 -10.17790 -10.17732 -10.17729
 Alpha  occ. eigenvalues --  -10.17702 -10.17444 -10.17412 -10.17385 -10.17344
 Alpha  occ. eigenvalues --  -10.17342 -10.17273  -0.85981  -0.85585  -0.75127
 Alpha  occ. eigenvalues --   -0.75121  -0.74742  -0.74718  -0.60822  -0.60820
 Alpha  occ. eigenvalues --   -0.60436  -0.60421  -0.53047  -0.52655  -0.46661
 Alpha  occ. eigenvalues --   -0.46271  -0.45295  -0.44902  -0.42777  -0.42769
 Alpha  occ. eigenvalues --   -0.42403  -0.42359  -0.37486  -0.37087  -0.35038
 Alpha  occ. eigenvalues --   -0.35032  -0.34660  -0.34624  -0.26107  -0.26100
 Alpha  occ. eigenvalues --   -0.25720  -0.25695
 Alpha virt. eigenvalues --   -0.01632  -0.01630  -0.01247  -0.01231   0.02156
 Alpha virt. eigenvalues --    0.03211   0.04955   0.05315   0.05530   0.05778
 Alpha virt. eigenvalues --    0.07907   0.08041   0.08150   0.08345   0.10951

 Mulliken charges:
               1
     1  C   -0.116683
     2  H    0.116360
     3  C   -0.116632
     4  H    0.116855
     5  C   -0.116632
     6  H    0.116855
     7  C   -0.116632
     8  H    0.116855
     9  C   -0.116632
    10  H    0.116855
    11  C   -0.116683
    12  H    0.116360
    13  C   -0.118027
    14  C   -0.128034
    15  H    0.117472
    16  H    0.140855
    17  C   -0.115231
    18  H    0.114741
    19  C   -0.115868
    20  H    0.114898
    21  C   -0.115231
    22  H    0.114741
    23  C   -0.128034
    24  H    0.117472
 Sum of Mulliken charges =   0.00000

 Dipole moment (field-independent basis, Debye):
    X=              0.0000    Y=              0.0000    Z=             -0.1443  Tot=              0.1443
 Quadrupole moment (field-independent basis, Debye-Ang):
   XX=            -71.8674   YY=            -64.5142   ZZ=            -72.2684
   XY=              0.0000   XZ=              0.0000   YZ=              0.0000

 Normal termination of Gaussian 09 at Sun Mar 19 03:07:24 2017.
