 Gaussian 09, Revision D.01,
 Gaussian 09:  EM64L-G09RevD.01 24-Apr-2013

 ----------------------------------------------
 #p b3lyp empiricaldispersion=gd3bj may-cc-pVQZ
 ----------------------------------------------

 ---------------------
 benzene dimer 2.30425
 ---------------------
 Symbolic Z-matrix:
 Charge =  0 Multiplicity = 1

                         Standard orientation:
 ---------------------------------------------------------------------
 Center     Atomic      Atomic             Coordinates (Angstroms)
 Number     Number       Type             X           Y           Z
 ---------------------------------------------------------------------
      1          6           0       -1.391500    0.000000   -2.400000
      2          1           0       -2.471500    0.000000   -2.400000
      3          6           0       -0.695750    1.205074   -2.400000
      4          1           0       -1.235750    2.140382   -2.400000
      5          6           0       -0.695750   -1.205074   -2.400000
      6          1           0       -1.235750   -2.140382   -2.400000
      7          6           0        0.695750    1.205074   -2.400000
      8          1           0        1.235750    2.140382   -2.400000
      9          6           0        0.695750   -1.205074   -2.400000
     10          1           0        1.235750   -2.140382   -2.400000
     11          6           0        1.391500    0.000000   -2.400000
     12          1           0        2.471500    0.000000   -2.400000
     13          6           0        0.000000    0.000000    1.008500
     14          6           0        0.000000   -1.205074    1.704250
     15          1           0        0.000000   -2.140382    1.164250
     16          1           0        0.000000    0.000000   -0.071500
     17          6           0        0.000000   -1.205074    3.095750
     18          1           0        0.000000   -2.140382    3.635750
     19          6           0        0.000000    0.000000    3.791500
     20          1           0        0.000000    0.000000    4.871500
     21          6           0        0.000000    1.205074    3.095750
     22          1           0        0.000000    2.140382    3.635750
     23          6           0        0.000000    1.205074    1.704250
     24          1           0        0.000000    2.140382    1.164250
 ---------------------------------------------------------------------

 SCF Done:  E(RB3LYP) =  -464.743175170     A.U. after   10 cycles

 The electronic state is 1-A1.
 Alpha  occ. eigenvalues --  -10.18240 -10.18215 -10.18205 -10.18154 -10.18143
 Alpha  occ. eigenvalues --  -10.18119 -10.17080 -10.17048 -10.16994 -10.16894
 Alpha  occ. eigenvalues --  -10.16889 -10.16529  -0.86497  -0.85148  -0.75581
 Alpha  occ. eigenvalues --   -0.75551  -0.74340  -0.74240  -0.61221  -0.61217
 Alpha  occ. eigenvalues --   -0.60011  -0.59970  -0.53460  -0.52248  -0.47006
 Alpha  occ. eigenvalues --   -0.45891  -0.45714  -0.44458  -0.43191  -0.43156
 Alpha  occ. eigenvalues --   -0.42225  -0.42018  -0.37750  -0.36684  -0.35427
 Alpha  occ. eigenvalues --   -0.35405  -0.34247  -0.33751  -0.26771  -0.26644
 Alpha  occ. eigenvalues --   -0.25354  -0.25058
 Alpha virt. eigenvalues --   -0.02451  -0.02274  -0.01054  -0.00947  -0.00876
 Alpha virt. eigenvalues --    0.00237   0.00366   0.00890   0.01969   0.02247
 Alpha virt. eigenvalues --    0.02803   0.02945   0.03847   0.04034   0.04458

 Mulliken charges:
               1
     1  C   -0.171923
     2  H    0.145467
     3  C   -0.123541
     4  H    0.139918
     5  C   -0.123541
     6  H    0.139918
     7  C   -0.123541
     8  H    0.139918
     9  C   -0.123541
    10  H    0.139918
    11  C   -0.171923
    12  H    0.145467
    13  C   -0.355874
    14  C   -0.129812
    15  H    0.178224
    16  H    0.146785
    17  C   -0.117076
    18  H    0.158030
    19  C   -0.133766
    20  H    0.151524
    21  C   -0.117076
    22  H    0.158030
    23  C   -0.129812
    24  H    0.178224
 Sum of Mulliken charges =   0.00000

 Dipole moment (field-independent basis, Debye):
    X=              0.0000    Y=              0.0000    Z=             -0.5718  Tot=              0.5718
 Quadrupole moment (field-independent basis, Debye-Ang):
   XX=            -71.8391   YY=            -64.9819   ZZ=            -73.1086
   XY=              0.0000   XZ=              0.0000   YZ=              0.0000

 Normal termination of Gaussian 09 at Sun Mar 19 02:58:30 2017.
