 Gaussian 09, Revision D.01,
 Gaussian 09:  EM64L-G09RevD.01 24-Apr-2013

 ------------------------------------------
 #p b3lyp empiricaldispersion=gd3bj cc-pVQZ
 ------------------------------------------

 ---------------------
 benzene dimer 2.60425
 ---------------------
 Symbolic Z-matrix:
 Charge =  0 Multiplicity = 1

                         Standard orientation:
 ---------------------------------------------------------------------
 Center     Atomic      Atomic             Coordinates (Angstroms)
 Number     Number       Type             X           Y           Z
 ---------------------------------------------------------------------
      1          6           0       -1.391500    0.000000   -2.550000
      2          1           0       -2.471500    0.000000   -2.550000
      3          6           0       -0.695750    1.205074   -2.550000
      4          1           0       -1.235750    2.140382   -2.550000
      5          6           0       -0.695750   -1.205074   -2.550000
      6          1           0       -1.235750   -2.140382   -2.550000
      7          6           0        0.695750    1.205074   -2.550000
      8          1           0        1.235750    2.140382   -2.550000
      9          6           0        0.695750   -1.205074   -2.550000
     10          1           0        1.235750   -2.140382   -2.550000
     11          6           0        1.391500    0.000000   -2.550000
     12          1           0        2.471500    0.000000   -2.550000
     13          6           0        0.000000    0.000000    1.158500
     14          6           0        0.000000   -1.205074    1.854250
     15          1           0        0.000000   -2.140382    1.314250
     16          1           0        0.000000    0.000000    0.078500
     17          6           0        0.000000   -1.205074    3.245750
     18          1           0        0.000000   -2.140382    3.785750
     19          6           0        0.000000    0.000000    3.941500
     20          1           0        0.000000    0.000000    5.021500
     21          6           0        0.000000    1.205074    3.245750
     22          1           0        0.000000    2.140382    3.785750
     23          6           0        0.000000    1.205074    1.854250
     24          1           0        0.000000    2.140382    1.314250
 ---------------------------------------------------------------------

 SCF Done:  E(RB3LYP) =  -464.742599230     A.U. after   15 cycles

 The electronic state is 1-A1.
 Alpha  occ. eigenvalues --  -10.18082 -10.18058 -10.18048 -10.17997 -10.17985
 Alpha  occ. eigenvalues --  -10.17962 -10.17098 -10.17063 -10.17017 -10.16940
 Alpha  occ. eigenvalues --  -10.16935 -10.16683  -0.86288  -0.85191  -0.75408
 Alpha  occ. eigenvalues --   -0.75385  -0.74375  -0.74294  -0.61072  -0.61067
 Alpha  occ. eigenvalues --   -0.60055  -0.60011  -0.53297  -0.52273  -0.46879
 Alpha  occ. eigenvalues --   -0.45901  -0.45556  -0.44503  -0.43035  -0.43007
 Alpha  occ. eigenvalues --   -0.42071  -0.42053  -0.37728  -0.36715  -0.35282
 Alpha  occ. eigenvalues --   -0.35264  -0.34293  -0.34007  -0.26491  -0.26440
 Alpha  occ. eigenvalues --   -0.25374  -0.25193
 Alpha virt. eigenvalues --   -0.02014  -0.01939  -0.00830  -0.00815   0.01867
 Alpha virt. eigenvalues --    0.03761   0.04076   0.05199   0.06397   0.06653
 Alpha virt. eigenvalues --    0.07921   0.08213   0.09566   0.09754   0.10888

 Mulliken charges:
               1
     1  C   -0.109047
     2  H    0.113914
     3  C   -0.119189
     4  H    0.117557
     5  C   -0.119189
     6  H    0.117557
     7  C   -0.119189
     8  H    0.117557
     9  C   -0.119189
    10  H    0.117557
    11  C   -0.109047
    12  H    0.113914
    13  C   -0.073750
    14  C   -0.136729
    15  H    0.112763
    16  H    0.123198
    17  C   -0.118387
    18  H    0.113475
    19  C   -0.108754
    20  H    0.113853
    21  C   -0.118387
    22  H    0.113475
    23  C   -0.136729
    24  H    0.112763
 Sum of Mulliken charges =   0.00000

 Dipole moment (field-independent basis, Debye):
    X=              0.0000    Y=              0.0000    Z=             -0.4626  Tot=              0.4626
 Quadrupole moment (field-independent basis, Debye-Ang):
   XX=            -71.6659   YY=            -64.6674   ZZ=            -72.5347
   XY=              0.0000   XZ=              0.0000   YZ=              0.0000

 Normal termination of Gaussian 09 at Sun Mar 19 02:02:50 2017.
