 Gaussian 09, Revision D.01,
 Gaussian 09:  EM64L-G09RevD.01 24-Apr-2013

 ---------------
 #p b3lyp 6-31g*
 ---------------

 ---------------------
 benzene dimer 3.00425
 ---------------------
 Symbolic Z-matrix:
 Charge =  0 Multiplicity = 1

                         Standard orientation:
 ---------------------------------------------------------------------
 Center     Atomic      Atomic             Coordinates (Angstroms)
 Number     Number       Type             X           Y           Z
 ---------------------------------------------------------------------
      1          6           0       -1.391500    0.000000   -2.750000
      2          1           0       -2.471500    0.000000   -2.750000
      3          6           0       -0.695750    1.205074   -2.750000
      4          1           0       -1.235750    2.140382   -2.750000
      5          6           0       -0.695750   -1.205074   -2.750000
      6          1           0       -1.235750   -2.140382   -2.750000
      7          6           0        0.695750    1.205074   -2.750000
      8          1           0        1.235750    2.140382   -2.750000
      9          6           0        0.695750   -1.205074   -2.750000
     10          1           0        1.235750   -2.140382   -2.750000
     11          6           0        1.391500    0.000000   -2.750000
     12          1           0        2.471500    0.000000   -2.750000
     13          6           0        0.000000    0.000000    1.358500
     14          6           0        0.000000   -1.205074    2.054250
     15          1           0        0.000000   -2.140382    1.514250
     16          1           0        0.000000    0.000000    0.278500
     17          6           0        0.000000   -1.205074    3.445750
     18          1           0        0.000000   -2.140382    3.985750
     19          6           0        0.000000    0.000000    4.141500
     20          1           0        0.000000    0.000000    5.221500
     21          6           0        0.000000    1.205074    3.445750
     22          1           0        0.000000    2.140382    3.985750
     23          6           0        0.000000    1.205074    2.054250
     24          1           0        0.000000    2.140382    1.514250
 ---------------------------------------------------------------------

 SCF Done:  E(RB3LYP) =  -464.497601945     A.U. after   13 cycles

 The electronic state is 1-A1.
 Alpha  occ. eigenvalues --  -10.18886 -10.18862 -10.18854 -10.18805 -10.18795
 Alpha  occ. eigenvalues --  -10.18772 -10.18057 -10.18020 -10.17981 -10.17920
 Alpha  occ. eigenvalues --  -10.17914 -10.17713  -0.85238  -0.84333  -0.74489
 Alpha  occ. eigenvalues --   -0.74473  -0.73628  -0.73558  -0.60207  -0.60203
 Alpha  occ. eigenvalues --   -0.59355  -0.59307  -0.52414  -0.51545  -0.46298
 Alpha  occ. eigenvalues --   -0.45450  -0.44265  -0.43376  -0.42164  -0.42144
 Alpha  occ. eigenvalues --   -0.41342  -0.41253  -0.36485  -0.35564  -0.34373
 Alpha  occ. eigenvalues --   -0.34360  -0.33540  -0.33368  -0.25058  -0.25046
 Alpha  occ. eigenvalues --   -0.24183  -0.24098
 Alpha virt. eigenvalues --    0.00127   0.00137   0.00987   0.01040   0.09005
 Alpha virt. eigenvalues --    0.09834   0.14315   0.14445   0.15114   0.15203
 Alpha virt. eigenvalues --    0.16327   0.17191   0.18168   0.18174   0.18829

 Mulliken charges:
               1
     1  C   -0.127352
     2  H    0.130930
     3  C   -0.129604
     4  H    0.129956
     5  C   -0.129604
     6  H    0.129956
     7  C   -0.129604
     8  H    0.129956
     9  C   -0.129604
    10  H    0.129956
    11  C   -0.127352
    12  H    0.130930
    13  C   -0.138769
    14  C   -0.130670
    15  H    0.125165
    16  H    0.151943
    17  C   -0.128059
    18  H    0.124519
    19  C   -0.128450
    20  H    0.124805
    21  C   -0.128059
    22  H    0.124519
    23  C   -0.130670
    24  H    0.125165
 Sum of Mulliken charges =   0.00000

 Dipole moment (field-independent basis, Debye):
    X=              0.0000    Y=              0.0000    Z=             -0.3862  Tot=              0.3862
 Quadrupole moment (field-independent basis, Debye-Ang):
   XX=            -69.7131   YY=            -62.9146   ZZ=            -70.2880
   XY=              0.0000   XZ=              0.0000   YZ=              0.0000

 Normal termination of Gaussian 09 at Sun Mar 19 00:49:21 2017.
