 Gaussian 09, Revision D.01,
 Gaussian 09:  EM64L-G09RevD.01 24-Apr-2013

 ----------------------------------------------
 #p b3lyp empiricaldispersion=gd3bj jul-cc-pVDZ
 ----------------------------------------------

 ---------------------
 benzene dimer 2.00425
 ---------------------
 Symbolic Z-matrix:
 Charge =  0 Multiplicity = 1

                         Standard orientation:
 ---------------------------------------------------------------------
 Center     Atomic      Atomic             Coordinates (Angstroms)
 Number     Number       Type             X           Y           Z
 ---------------------------------------------------------------------
      1          6           0       -1.391500    0.000000   -2.250000
      2          1           0       -2.471500    0.000000   -2.250000
      3          6           0       -0.695750    1.205074   -2.250000
      4          1           0       -1.235750    2.140382   -2.250000
      5          6           0       -0.695750   -1.205074   -2.250000
      6          1           0       -1.235750   -2.140382   -2.250000
      7          6           0        0.695750    1.205074   -2.250000
      8          1           0        1.235750    2.140382   -2.250000
      9          6           0        0.695750   -1.205074   -2.250000
     10          1           0        1.235750   -2.140382   -2.250000
     11          6           0        1.391500    0.000000   -2.250000
     12          1           0        2.471500    0.000000   -2.250000
     13          6           0        0.000000    0.000000    0.858500
     14          6           0        0.000000   -1.205074    1.554250
     15          1           0        0.000000   -2.140382    1.014250
     16          1           0        0.000000    0.000000   -0.221500
     17          6           0        0.000000   -1.205074    2.945750
     18          1           0        0.000000   -2.140382    3.485750
     19          6           0        0.000000    0.000000    3.641500
     20          1           0        0.000000    0.000000    4.721500
     21          6           0        0.000000    1.205074    2.945750
     22          1           0        0.000000    2.140382    3.485750
     23          6           0        0.000000    1.205074    1.554250
     24          1           0        0.000000    2.140382    1.014250
 ---------------------------------------------------------------------

 SCF Done:  E(RB3LYP) =  -464.581972183     A.U. after   11 cycles

 The electronic state is 1-A1.
 Alpha  occ. eigenvalues --  -10.19841 -10.19823 -10.19815 -10.19767 -10.19759
 Alpha  occ. eigenvalues --  -10.19737 -10.18425 -10.18405 -10.18343 -10.18181
 Alpha  occ. eigenvalues --  -10.18180 -10.17586  -0.86964  -0.85212  -0.75942
 Alpha  occ. eigenvalues --   -0.75904  -0.74402  -0.74284  -0.61440  -0.61437
 Alpha  occ. eigenvalues --   -0.59963  -0.59946  -0.53580  -0.52101  -0.47104
 Alpha  occ. eigenvalues --   -0.45846  -0.45796  -0.44263  -0.43274  -0.43231
 Alpha  occ. eigenvalues --   -0.42417  -0.41832  -0.37460  -0.36472  -0.35426
 Alpha  occ. eigenvalues --   -0.35399  -0.33982  -0.33087  -0.27020  -0.26748
 Alpha  occ. eigenvalues --   -0.25152  -0.24668
 Alpha virt. eigenvalues --   -0.02578  -0.02311  -0.00653  -0.00533  -0.00349
 Alpha virt. eigenvalues --    0.01022   0.01052   0.01650   0.02942   0.03136
 Alpha virt. eigenvalues --    0.03742   0.03818   0.05262   0.05659   0.05780

 Mulliken charges:
               1
     1  C    0.263798
     2  H   -0.215681
     3  C    0.208466
     4  H   -0.217013
     5  C    0.208466
     6  H   -0.217013
     7  C    0.208466
     8  H   -0.217013
     9  C    0.208466
    10  H   -0.217013
    11  C    0.263798
    12  H   -0.215681
    13  C    0.928371
    14  C    0.178950
    15  H   -0.192818
    16  H   -0.631685
    17  C    0.046652
    18  H   -0.200651
    19  C    0.181473
    20  H   -0.204472
    21  C    0.046652
    22  H   -0.200651
    23  C    0.178950
    24  H   -0.192818
 Sum of Mulliken charges =   0.00000

 Dipole moment (field-independent basis, Debye):
    X=              0.0000    Y=              0.0000    Z=             -0.7103  Tot=              0.7103
 Quadrupole moment (field-independent basis, Debye-Ang):
   XX=            -71.8435   YY=            -65.3424   ZZ=            -73.5432
   XY=              0.0000   XZ=              0.0000   YZ=              0.0000

 Normal termination of Gaussian 09 at Sun Mar 19 00:41:48 2017.
