 Gaussian 09, Revision D.01,
 Gaussian 09:  EM64L-G09RevD.01 24-Apr-2013

 ---------------
 #p m062x 6-31g*
 ---------------

 ---------------------
 benzene dimer 3.10425
 ---------------------
 Symbolic Z-matrix:
 Charge =  0 Multiplicity = 1

                         Standard orientation:
 ---------------------------------------------------------------------
 Center     Atomic      Atomic             Coordinates (Angstroms)
 Number     Number       Type             X           Y           Z
 ---------------------------------------------------------------------
      1          6           0       -1.391500    0.000000   -2.800000
      2          1           0       -2.471500    0.000000   -2.800000
      3          6           0       -0.695750    1.205074   -2.800000
      4          1           0       -1.235750    2.140382   -2.800000
      5          6           0       -0.695750   -1.205074   -2.800000
      6          1           0       -1.235750   -2.140382   -2.800000
      7          6           0        0.695750    1.205074   -2.800000
      8          1           0        1.235750    2.140382   -2.800000
      9          6           0        0.695750   -1.205074   -2.800000
     10          1           0        1.235750   -2.140382   -2.800000
     11          6           0        1.391500    0.000000   -2.800000
     12          1           0        2.471500    0.000000   -2.800000
     13          6           0        0.000000    0.000000    1.408500
     14          6           0        0.000000   -1.205074    2.104250
     15          1           0        0.000000   -2.140382    1.564250
     16          1           0        0.000000    0.000000    0.328500
     17          6           0        0.000000   -1.205074    3.495750
     18          1           0        0.000000   -2.140382    4.035750
     19          6           0        0.000000    0.000000    4.191500
     20          1           0        0.000000    0.000000    5.271500
     21          6           0        0.000000    1.205074    3.495750
     22          1           0        0.000000    2.140382    4.035750
     23          6           0        0.000000    1.205074    2.104250
     24          1           0        0.000000    2.140382    1.564250
 ---------------------------------------------------------------------

 SCF Done:  E(RM062X) =  -464.274982724     A.U. after   14 cycles

 The electronic state is 1-A1.
 Alpha  occ. eigenvalues --  -10.55000 -10.54967 -10.54959 -10.54889 -10.54879
 Alpha  occ. eigenvalues --  -10.54847 -10.54216 -10.54170 -10.54119 -10.54062
 Alpha  occ. eigenvalues --  -10.54054 -10.53876  -0.95601  -0.94755  -0.83992
 Alpha  occ. eigenvalues --   -0.83975  -0.83183  -0.83116  -0.68341  -0.68336
 Alpha  occ. eigenvalues --   -0.67537  -0.67493  -0.59894  -0.59074  -0.53338
 Alpha  occ. eigenvalues --   -0.52535  -0.50742  -0.49909  -0.48636  -0.48613
 Alpha  occ. eigenvalues --   -0.47862  -0.47780  -0.43429  -0.42590  -0.40012
 Alpha  occ. eigenvalues --   -0.40000  -0.39228  -0.39095  -0.30283  -0.30270
 Alpha  occ. eigenvalues --   -0.29464  -0.29384
 Alpha virt. eigenvalues --    0.03691   0.03701   0.04514   0.04561   0.13517
 Alpha virt. eigenvalues --    0.14175   0.19213   0.19340   0.19617   0.19940
 Alpha virt. eigenvalues --    0.21582   0.22408   0.22903   0.22932   0.23262

 Mulliken charges:
               1
     1  C   -0.162083
     2  H    0.165261
     3  C   -0.164099
     4  H    0.164105
     5  C   -0.164099
     6  H    0.164105
     7  C   -0.164099
     8  H    0.164105
     9  C   -0.164099
    10  H    0.164105
    11  C   -0.162083
    12  H    0.165261
    13  C   -0.158203
    14  C   -0.163921
    15  H    0.159150
    16  H    0.171903
    17  C   -0.162619
    18  H    0.159103
    19  C   -0.162882
    20  H    0.159382
    21  C   -0.162619
    22  H    0.159103
    23  C   -0.163921
    24  H    0.159150
 Sum of Mulliken charges =   0.00000

 Dipole moment (field-independent basis, Debye):
    X=              0.0000    Y=              0.0000    Z=             -0.3236  Tot=              0.3236
 Quadrupole moment (field-independent basis, Debye-Ang):
   XX=            -69.9896   YY=            -62.4585   ZZ=            -70.5510
   XY=              0.0000   XZ=              0.0000   YZ=              0.0000

 Normal termination of Gaussian 09 at Sun Mar 19 00:51:37 2017.
