 Gaussian 09, Revision D.01,
 Gaussian 09:  EM64L-G09RevD.01 24-Apr-2013

 ---------------
 #p m062x 6-31g*
 ---------------

 ---------------------
 benzene dimer 3.00425
 ---------------------
 Symbolic Z-matrix:
 Charge =  0 Multiplicity = 1

                         Standard orientation:
 ---------------------------------------------------------------------
 Center     Atomic      Atomic             Coordinates (Angstroms)
 Number     Number       Type             X           Y           Z
 ---------------------------------------------------------------------
      1          6           0       -1.391500    0.000000   -2.750000
      2          1           0       -2.471500    0.000000   -2.750000
      3          6           0       -0.695750    1.205074   -2.750000
      4          1           0       -1.235750    2.140382   -2.750000
      5          6           0       -0.695750   -1.205074   -2.750000
      6          1           0       -1.235750   -2.140382   -2.750000
      7          6           0        0.695750    1.205074   -2.750000
      8          1           0        1.235750    2.140382   -2.750000
      9          6           0        0.695750   -1.205074   -2.750000
     10          1           0        1.235750   -2.140382   -2.750000
     11          6           0        1.391500    0.000000   -2.750000
     12          1           0        2.471500    0.000000   -2.750000
     13          6           0        0.000000    0.000000    1.358500
     14          6           0        0.000000   -1.205074    2.054250
     15          1           0        0.000000   -2.140382    1.514250
     16          1           0        0.000000    0.000000    0.278500
     17          6           0        0.000000   -1.205074    3.445750
     18          1           0        0.000000   -2.140382    3.985750
     19          6           0        0.000000    0.000000    4.141500
     20          1           0        0.000000    0.000000    5.221500
     21          6           0        0.000000    1.205074    3.445750
     22          1           0        0.000000    2.140382    3.985750
     23          6           0        0.000000    1.205074    2.054250
     24          1           0        0.000000    2.140382    1.514250
 ---------------------------------------------------------------------

 SCF Done:  E(RM062X) =  -464.275232974     A.U. after   14 cycles

 The electronic state is 1-A1.
 Alpha  occ. eigenvalues --  -10.55023 -10.54992 -10.54982 -10.54913 -10.54902
 Alpha  occ. eigenvalues --  -10.54870 -10.54189 -10.54143 -10.54090 -10.54030
 Alpha  occ. eigenvalues --  -10.54022 -10.53827  -0.95628  -0.94724  -0.84016
 Alpha  occ. eigenvalues --   -0.83998  -0.83154  -0.83082  -0.68363  -0.68358
 Alpha  occ. eigenvalues --   -0.67507  -0.67459  -0.59916  -0.59044  -0.53357
 Alpha  occ. eigenvalues --   -0.52504  -0.50765  -0.49877  -0.48658  -0.48634
 Alpha  occ. eigenvalues --   -0.47834  -0.47760  -0.43446  -0.42561  -0.40033
 Alpha  occ. eigenvalues --   -0.40020  -0.39198  -0.39044  -0.30312  -0.30301
 Alpha  occ. eigenvalues --   -0.29437  -0.29345
 Alpha virt. eigenvalues --    0.03662   0.03673   0.04544   0.04592   0.13493
 Alpha virt. eigenvalues --    0.14210   0.19171   0.19328   0.19659   0.19972
 Alpha virt. eigenvalues --    0.21555   0.22436   0.22879   0.22917   0.23308

 Mulliken charges:
               1
     1  C   -0.161921
     2  H    0.165515
     3  C   -0.164264
     4  H    0.164305
     5  C   -0.164264
     6  H    0.164305
     7  C   -0.164264
     8  H    0.164305
     9  C   -0.164264
    10  H    0.164305
    11  C   -0.161921
    12  H    0.165515
    13  C   -0.157131
    14  C   -0.164130
    15  H    0.158583
    16  H    0.172201
    17  C   -0.162724
    18  H    0.158912
    19  C   -0.162912
    20  H    0.159207
    21  C   -0.162724
    22  H    0.158912
    23  C   -0.164130
    24  H    0.158583
 Sum of Mulliken charges =   0.00000

 Dipole moment (field-independent basis, Debye):
    X=              0.0000    Y=              0.0000    Z=             -0.3510  Tot=              0.3510
 Quadrupole moment (field-independent basis, Debye-Ang):
   XX=            -69.9731   YY=            -62.4682   ZZ=            -70.5519
   XY=              0.0000   XZ=              0.0000   YZ=              0.0000

 Normal termination of Gaussian 09 at Sun Mar 19 00:49:01 2017.
