 Gaussian 09, Revision D.01,
 Gaussian 09:  EM64L-G09RevD.01 24-Apr-2013

 ------------
 #p hf 6-31g*
 ------------

 ---------------------
 benzene dimer 2.90425
 ---------------------
 Symbolic Z-matrix:
 Charge =  0 Multiplicity = 1

                         Standard orientation:
 ---------------------------------------------------------------------
 Center     Atomic      Atomic             Coordinates (Angstroms)
 Number     Number       Type             X           Y           Z
 ---------------------------------------------------------------------
      1          6           0       -1.391500    0.000000   -2.700000
      2          1           0       -2.471500    0.000000   -2.700000
      3          6           0       -0.695750    1.205074   -2.700000
      4          1           0       -1.235750    2.140382   -2.700000
      5          6           0       -0.695750   -1.205074   -2.700000
      6          1           0       -1.235750   -2.140382   -2.700000
      7          6           0        0.695750    1.205074   -2.700000
      8          1           0        1.235750    2.140382   -2.700000
      9          6           0        0.695750   -1.205074   -2.700000
     10          1           0        1.235750   -2.140382   -2.700000
     11          6           0        1.391500    0.000000   -2.700000
     12          1           0        2.471500    0.000000   -2.700000
     13          6           0        0.000000    0.000000    1.308500
     14          6           0        0.000000   -1.205074    2.004250
     15          1           0        0.000000   -2.140382    1.464250
     16          1           0        0.000000    0.000000    0.228500
     17          6           0        0.000000   -1.205074    3.395750
     18          1           0        0.000000   -2.140382    3.935750
     19          6           0        0.000000    0.000000    4.091500
     20          1           0        0.000000    0.000000    5.171500
     21          6           0        0.000000    1.205074    3.395750
     22          1           0        0.000000    2.140382    3.935750
     23          6           0        0.000000    1.205074    2.004250
     24          1           0        0.000000    2.140382    1.464250
 ---------------------------------------------------------------------

 SCF Done:  E(RHF) =  -461.406760303     A.U. after   12 cycles

 The electronic state is 1-A1.
 Alpha  occ. eigenvalues --  -11.23567 -11.23515 -11.23504 -11.23394 -11.23381
 Alpha  occ. eigenvalues --  -11.23328 -11.22590 -11.22529 -11.22436 -11.22359
 Alpha  occ. eigenvalues --  -11.22345 -11.22102  -1.14915  -1.13839  -1.01346
 Alpha  occ. eigenvalues --   -1.01324  -1.00327  -1.00244  -0.82231  -0.82227
 Alpha  occ. eigenvalues --   -0.81220  -0.81177  -0.70838  -0.69811  -0.64299
 Alpha  occ. eigenvalues --   -0.63302  -0.61598  -0.60552  -0.58680  -0.58654
 Alpha  occ. eigenvalues --   -0.57703  -0.57615  -0.50143  -0.49288  -0.49271
 Alpha  occ. eigenvalues --   -0.48970  -0.48303  -0.47978  -0.33430  -0.33424
 Alpha  occ. eigenvalues --   -0.32417  -0.32254
 Alpha virt. eigenvalues --    0.14394   0.14412   0.15420   0.15495   0.23155
 Alpha virt. eigenvalues --    0.24188   0.28923   0.29133   0.29929   0.30159
 Alpha virt. eigenvalues --    0.32942   0.32951   0.33443   0.33691   0.33788

 Mulliken charges:
               1
     1  C   -0.199747
     2  H    0.203552
     3  C   -0.202760
     4  H    0.202352
     5  C   -0.202760
     6  H    0.202352
     7  C   -0.202760
     8  H    0.202352
     9  C   -0.202760
    10  H    0.202352
    11  C   -0.199747
    12  H    0.203552
    13  C   -0.211541
    14  C   -0.204410
    15  H    0.196839
    16  H    0.232378
    17  C   -0.199426
    18  H    0.196259
    19  C   -0.201836
    20  H    0.196500
    21  C   -0.199426
    22  H    0.196259
    23  C   -0.204410
    24  H    0.196839
 Sum of Mulliken charges =   0.00000

 Dipole moment (field-independent basis, Debye):
    X=              0.0000    Y=              0.0000    Z=             -0.4163  Tot=              0.4163
 Quadrupole moment (field-independent basis, Debye-Ang):
   XX=            -71.0180   YY=            -62.8832   ZZ=            -71.8076
   XY=              0.0000   XZ=              0.0000   YZ=              0.0000

 Normal termination of Gaussian 09 at Sun Mar 19 00:48:42 2017.
