 Gaussian 09, Revision D.01,
 Gaussian 09:  EM64L-G09RevD.01 24-Apr-2013

 ---------------
 #p b3lyp 6-31g*
 ---------------

 ----------------------------
 benzene dimer 2.495750000000
 ----------------------------
 Symbolic Z-matrix:
 Charge =  0 Multiplicity = 1

                         Standard orientation:
 ---------------------------------------------------------------------
 Center     Atomic      Atomic             Coordinates (Angstroms)
 Number     Number       Type             X           Y           Z
 ---------------------------------------------------------------------
      1          6           0       -1.391500    0.000000   -2.495750
      2          1           0       -2.471500    0.000000   -2.495750
      3          6           0       -0.695750    1.205074   -2.495750
      4          1           0       -1.235750    2.140382   -2.495750
      5          6           0       -0.695750   -1.205074   -2.495750
      6          1           0       -1.235750   -2.140382   -2.495750
      7          6           0        0.695750    1.205074   -2.495750
      8          1           0        1.235750    2.140382   -2.495750
      9          6           0        0.695750   -1.205074   -2.495750
     10          1           0        1.235750   -2.140382   -2.495750
     11          6           0        1.391500    0.000000   -2.495750
     12          1           0        2.471500    0.000000   -2.495750
     13          6           0        0.000000    0.000000    1.104250
     14          6           0        0.000000   -1.205074    1.800000
     15          1           0        0.000000   -2.140382    1.260000
     16          1           0        0.000000    0.000000    0.024250
     17          6           0        0.000000   -1.205074    3.191500
     18          1           0        0.000000   -2.140382    3.731500
     19          6           0        0.000000    0.000000    3.887250
     20          1           0        0.000000    0.000000    4.967250
     21          6           0        0.000000    1.205074    3.191500
     22          1           0        0.000000    2.140382    3.731500
     23          6           0        0.000000    1.205074    1.800000
     24          1           0        0.000000    2.140382    1.260000
 ---------------------------------------------------------------------

 SCF Done:  E(RB3LYP) =  -464.497037722     A.U. after   13 cycles

 The electronic state is 1-A1.
 Alpha  occ. eigenvalues --  -10.19037 -10.19014 -10.19001 -10.18957 -10.18942
 Alpha  occ. eigenvalues --  -10.18921 -10.17861 -10.17825 -10.17783 -10.17679
 Alpha  occ. eigenvalues --  -10.17675 -10.17320  -0.85433  -0.84106  -0.74658
 Alpha  occ. eigenvalues --   -0.74631  -0.73420  -0.73315  -0.60355  -0.60350
 Alpha  occ. eigenvalues --   -0.59139  -0.59077  -0.52568  -0.51338  -0.46425
 Alpha  occ. eigenvalues --   -0.45257  -0.44421  -0.43146  -0.42318  -0.42287
 Alpha  occ. eigenvalues --   -0.41167  -0.41145  -0.36581  -0.35354  -0.34517
 Alpha  occ. eigenvalues --   -0.34498  -0.33330  -0.32934  -0.25295  -0.25269
 Alpha  occ. eigenvalues --   -0.23987  -0.23803
 Alpha virt. eigenvalues --   -0.00074  -0.00053   0.01211   0.01271   0.08836
 Alpha virt. eigenvalues --    0.10220   0.14008   0.14358   0.15384   0.15839
 Alpha virt. eigenvalues --    0.16160   0.17407   0.18069   0.18114   0.18936

 Mulliken charges:
               1
     1  C   -0.126583
     2  H    0.132466
     3  C   -0.130338
     4  H    0.131286
     5  C   -0.130338
     6  H    0.131286
     7  C   -0.130338
     8  H    0.131286
     9  C   -0.130338
    10  H    0.131286
    11  C   -0.126583
    12  H    0.132466
    13  C   -0.130493
    14  C   -0.135519
    15  H    0.121860
    16  H    0.158595
    17  C   -0.128863
    18  H    0.123177
    19  C   -0.128488
    20  H    0.123516
    21  C   -0.128863
    22  H    0.123177
    23  C   -0.135519
    24  H    0.121860
 Sum of Mulliken charges =   0.00000

 Dipole moment (field-independent basis, Debye):
    X=              0.0000    Y=              0.0000    Z=             -0.5871  Tot=              0.5871
 Quadrupole moment (field-independent basis, Debye-Ang):
   XX=            -69.6004   YY=            -62.9893   ZZ=            -70.3770
   XY=              0.0000   XZ=              0.0000   YZ=              0.0000

 Normal termination of Gaussian 09 at Sun Mar 19 01:00:51 2017.
