 Gaussian 09, Revision D.01,
 Gaussian 09:  EM64L-G09RevD.01 24-Apr-2013

 ---------------
 #p m062x 6-31g*
 ---------------

 ---------------------
 benzene dimer 2.00425
 ---------------------
 Symbolic Z-matrix:
 Charge =  0 Multiplicity = 1

                         Standard orientation:
 ---------------------------------------------------------------------
 Center     Atomic      Atomic             Coordinates (Angstroms)
 Number     Number       Type             X           Y           Z
 ---------------------------------------------------------------------
      1          6           0       -1.391500    0.000000   -2.250000
      2          1           0       -2.471500    0.000000   -2.250000
      3          6           0       -0.695750    1.205074   -2.250000
      4          1           0       -1.235750    2.140382   -2.250000
      5          6           0       -0.695750   -1.205074   -2.250000
      6          1           0       -1.235750   -2.140382   -2.250000
      7          6           0        0.695750    1.205074   -2.250000
      8          1           0        1.235750    2.140382   -2.250000
      9          6           0        0.695750   -1.205074   -2.250000
     10          1           0        1.235750   -2.140382   -2.250000
     11          6           0        1.391500    0.000000   -2.250000
     12          1           0        2.471500    0.000000   -2.250000
     13          6           0        0.000000    0.000000    0.858500
     14          6           0        0.000000   -1.205074    1.554250
     15          1           0        0.000000   -2.140382    1.014250
     16          1           0        0.000000    0.000000   -0.221500
     17          6           0        0.000000   -1.205074    2.945750
     18          1           0        0.000000   -2.140382    3.485750
     19          6           0        0.000000    0.000000    3.641500
     20          1           0        0.000000    0.000000    4.721500
     21          6           0        0.000000    1.205074    2.945750
     22          1           0        0.000000    2.140382    3.485750
     23          6           0        0.000000    1.205074    1.554250
     24          1           0        0.000000    2.140382    1.014250
 ---------------------------------------------------------------------

 SCF Done:  E(RM062X) =  -464.274299067     A.U. after   14 cycles

 The electronic state is 1-A1.
 Alpha  occ. eigenvalues --  -10.55390 -10.55362 -10.55343 -10.55283 -10.55261
 Alpha  occ. eigenvalues --  -10.55233 -10.53742 -10.53699 -10.53633 -10.53480
 Alpha  occ. eigenvalues --  -10.53476 -10.52850  -0.96203  -0.94183  -0.84454
 Alpha  occ. eigenvalues --   -0.84407  -0.82669  -0.82517  -0.68722  -0.68717
 Alpha  occ. eigenvalues --   -0.67007  -0.66974  -0.60356  -0.58636  -0.53657
 Alpha  occ. eigenvalues --   -0.52173  -0.51145  -0.49351  -0.49053  -0.49002
 Alpha  occ. eigenvalues --   -0.48088  -0.47386  -0.43029  -0.42085  -0.40383
 Alpha  occ. eigenvalues --   -0.40357  -0.38705  -0.37827  -0.31096  -0.30872
 Alpha  occ. eigenvalues --   -0.28991  -0.28511
 Alpha virt. eigenvalues --    0.03002   0.03127   0.05120   0.05139   0.13001
 Alpha virt. eigenvalues --    0.15205   0.18251   0.19117   0.20619   0.20997
 Alpha virt. eigenvalues --    0.21045   0.22672   0.22944   0.23046   0.23731

 Mulliken charges:
               1
     1  C   -0.158491
     2  H    0.169653
     3  C   -0.166492
     4  H    0.167845
     5  C   -0.166492
     6  H    0.167845
     7  C   -0.166492
     8  H    0.167845
     9  C   -0.166492
    10  H    0.167845
    11  C   -0.158491
    12  H    0.169653
    13  C   -0.117084
    14  C   -0.168099
    15  H    0.146972
    16  H    0.157558
    17  C   -0.164946
    18  H    0.155509
    19  C   -0.163253
    20  H    0.156173
    21  C   -0.164946
    22  H    0.155509
    23  C   -0.168099
    24  H    0.146972
 Sum of Mulliken charges =   0.00000

 Dipole moment (field-independent basis, Debye):
    X=              0.0000    Y=              0.0000    Z=             -0.7828  Tot=              0.7828
 Quadrupole moment (field-independent basis, Debye-Ang):
   XX=            -69.6848   YY=            -62.7076   ZZ=            -70.8466
   XY=              0.0000   XZ=              0.0000   YZ=              0.0000

 Normal termination of Gaussian 09 at Sun Mar 19 00:40:39 2017.
