 Gaussian 09, Revision D.01,
 Gaussian 09:  EM64L-G09RevD.01 24-Apr-2013

 ------------------------------------------
 #p b3lyp empiricaldispersion=gd3bj cc-pVTZ
 ------------------------------------------

 ---------------------
 benzene dimer 3.00425
 ---------------------
 Symbolic Z-matrix:
 Charge =  0 Multiplicity = 1

                         Standard orientation:
 ---------------------------------------------------------------------
 Center     Atomic      Atomic             Coordinates (Angstroms)
 Number     Number       Type             X           Y           Z
 ---------------------------------------------------------------------
      1          6           0       -1.391500    0.000000   -2.750000
      2          1           0       -2.471500    0.000000   -2.750000
      3          6           0       -0.695750    1.205074   -2.750000
      4          1           0       -1.235750    2.140382   -2.750000
      5          6           0       -0.695750   -1.205074   -2.750000
      6          1           0       -1.235750   -2.140382   -2.750000
      7          6           0        0.695750    1.205074   -2.750000
      8          1           0        1.235750    2.140382   -2.750000
      9          6           0        0.695750   -1.205074   -2.750000
     10          1           0        1.235750   -2.140382   -2.750000
     11          6           0        1.391500    0.000000   -2.750000
     12          1           0        2.471500    0.000000   -2.750000
     13          6           0        0.000000    0.000000    1.358500
     14          6           0        0.000000   -1.205074    2.054250
     15          1           0        0.000000   -2.140382    1.514250
     16          1           0        0.000000    0.000000    0.278500
     17          6           0        0.000000   -1.205074    3.445750
     18          1           0        0.000000   -2.140382    3.985750
     19          6           0        0.000000    0.000000    4.141500
     20          1           0        0.000000    0.000000    5.221500
     21          6           0        0.000000    1.205074    3.445750
     22          1           0        0.000000    2.140382    3.985750
     23          6           0        0.000000    1.205074    2.054250
     24          1           0        0.000000    2.140382    1.514250
 ---------------------------------------------------------------------

 SCF Done:  E(RB3LYP) =  -464.708179230     A.U. after   12 cycles

 The electronic state is 1-A1.
 Alpha  occ. eigenvalues --  -10.18173 -10.18151 -10.18142 -10.18091 -10.18081
 Alpha  occ. eigenvalues --  -10.18059 -10.17387 -10.17352 -10.17310 -10.17256
 Alpha  occ. eigenvalues --  -10.17249 -10.17077  -0.86095  -0.85240  -0.75235
 Alpha  occ. eigenvalues --   -0.75218  -0.74419  -0.74357  -0.60904  -0.60901
 Alpha  occ. eigenvalues --   -0.60096  -0.60057  -0.53101  -0.52281  -0.46722
 Alpha  occ. eigenvalues --   -0.45922  -0.45358  -0.44522  -0.42842  -0.42820
 Alpha  occ. eigenvalues --   -0.42061  -0.41994  -0.37562  -0.36712  -0.35094
 Alpha  occ. eigenvalues --   -0.35080  -0.34307  -0.34156  -0.26196  -0.26192
 Alpha  occ. eigenvalues --   -0.25357  -0.25258
 Alpha virt. eigenvalues --   -0.01590  -0.01573  -0.00729  -0.00714   0.03210
 Alpha virt. eigenvalues --    0.04886   0.05994   0.06956   0.07958   0.08049
 Alpha virt. eigenvalues --    0.10017   0.10032   0.10871   0.10960   0.12630

 Mulliken charges:
               1
     1  C   -0.103943
     2  H    0.107147
     3  C   -0.109015
     4  H    0.107702
     5  C   -0.109015
     6  H    0.107702
     7  C   -0.109015
     8  H    0.107702
     9  C   -0.109015
    10  H    0.107702
    11  C   -0.103943
    12  H    0.107147
    13  C   -0.086612
    14  C   -0.128304
    15  H    0.104297
    16  H    0.137854
    17  C   -0.101269
    18  H    0.103527
    19  C   -0.112634
    20  H    0.103732
    21  C   -0.101269
    22  H    0.103527
    23  C   -0.128304
    24  H    0.104297
 Sum of Mulliken charges =   0.00000

 Dipole moment (field-independent basis, Debye):
    X=              0.0000    Y=              0.0000    Z=             -0.3441  Tot=              0.3441
 Quadrupole moment (field-independent basis, Debye-Ang):
   XX=            -71.4967   YY=            -64.3726   ZZ=            -72.1997
   XY=              0.0000   XZ=              0.0000   YZ=              0.0000

 Normal termination of Gaussian 09 at Sun Mar 19 00:25:49 2017.
