 Gaussian 09, Revision D.01,
 Gaussian 09:  EM64L-G09RevD.01 24-Apr-2013

 --------------------
 #p m062x may-cc-pVQZ
 --------------------

 ---------------------
 benzene dimer 2.80425
 ---------------------
 Symbolic Z-matrix:
 Charge =  0 Multiplicity = 1

                         Standard orientation:
 ---------------------------------------------------------------------
 Center     Atomic      Atomic             Coordinates (Angstroms)
 Number     Number       Type             X           Y           Z
 ---------------------------------------------------------------------
      1          6           0       -1.391500    0.000000   -2.650000
      2          1           0       -2.471500    0.000000   -2.650000
      3          6           0       -0.695750    1.205074   -2.650000
      4          1           0       -1.235750    2.140382   -2.650000
      5          6           0       -0.695750   -1.205074   -2.650000
      6          1           0       -1.235750   -2.140382   -2.650000
      7          6           0        0.695750    1.205074   -2.650000
      8          1           0        1.235750    2.140382   -2.650000
      9          6           0        0.695750   -1.205074   -2.650000
     10          1           0        1.235750   -2.140382   -2.650000
     11          6           0        1.391500    0.000000   -2.650000
     12          1           0        2.471500    0.000000   -2.650000
     13          6           0        0.000000    0.000000    1.258500
     14          6           0        0.000000   -1.205074    1.954250
     15          1           0        0.000000   -2.140382    1.414250
     16          1           0        0.000000    0.000000    0.178500
     17          6           0        0.000000   -1.205074    3.345750
     18          1           0        0.000000   -2.140382    3.885750
     19          6           0        0.000000    0.000000    4.041500
     20          1           0        0.000000    0.000000    5.121500
     21          6           0        0.000000    1.205074    3.345750
     22          1           0        0.000000    2.140382    3.885750
     23          6           0        0.000000    1.205074    1.954250
     24          1           0        0.000000    2.140382    1.414250
 ---------------------------------------------------------------------

 SCF Done:  E(RM062X) =  -464.478053687     A.U. after   10 cycles

 The electronic state is 1-A1.
 Alpha  occ. eigenvalues --  -10.54718 -10.54685 -10.54674 -10.54602 -10.54590
 Alpha  occ. eigenvalues --  -10.54556 -10.53815 -10.53769 -10.53712 -10.53653
 Alpha  occ. eigenvalues --  -10.53644 -10.53455  -0.96493  -0.95516  -0.84802
 Alpha  occ. eigenvalues --   -0.84781  -0.83871  -0.83797  -0.69099  -0.69094
 Alpha  occ. eigenvalues --   -0.68175  -0.68133  -0.60625  -0.59690  -0.53874
 Alpha  occ. eigenvalues --   -0.52969  -0.51791  -0.50838  -0.49350  -0.49322
 Alpha  occ. eigenvalues --   -0.48458  -0.48451  -0.44488  -0.43583  -0.40752
 Alpha  occ. eigenvalues --   -0.40736  -0.39852  -0.39663  -0.31451  -0.31425
 Alpha  occ. eigenvalues --   -0.30465  -0.30323
 Alpha virt. eigenvalues --   -0.00308   0.00601   0.00787   0.01111   0.01137
 Alpha virt. eigenvalues --    0.01273   0.02161   0.02275   0.02276   0.02278
 Alpha virt. eigenvalues --    0.02934   0.03095   0.03858   0.04153   0.04180

 Mulliken charges:
               1
     1  C   -0.477977
     2  H    0.473150
     3  C   -0.476254
     4  H    0.472691
     5  C   -0.476254
     6  H    0.472691
     7  C   -0.476254
     8  H    0.472691
     9  C   -0.476254
    10  H    0.472691
    11  C   -0.477977
    12  H    0.473150
    13  C   -0.684291
    14  C   -0.386692
    15  H    0.480375
    16  H    0.452201
    17  C   -0.412362
    18  H    0.452094
    19  C   -0.439382
    20  H    0.428545
    21  C   -0.412362
    22  H    0.452094
    23  C   -0.386692
    24  H    0.480375
 Sum of Mulliken charges =   0.00000

 Dipole moment (field-independent basis, Debye):
    X=              0.0000    Y=              0.0000    Z=             -0.4145  Tot=              0.4145
 Quadrupole moment (field-independent basis, Debye-Ang):
   XX=            -71.7629   YY=            -64.1679   ZZ=            -72.3419
   XY=              0.0000   XZ=              0.0000   YZ=              0.0000

 1\1\GINC-HOLY2A14108\SP\RM062X\May-CC-pVQZ\C12H12\ROOT\19-Mar-2017\0\\
 #p m062x may-cc-pVQZ\\benzene dimer 2.80425\\0,1\C,0,1.3915,0.,2.80425
 \H,0,2.4715,0.,2.80425\C,0,0.69575,1.2050743494,2.80425\H,0,1.23575,2.
 1403817855,2.80425\C,0,0.69575,-1.2050743494,2.80425\H,0,1.23575,-2.14
 03817855,2.80425\C,0,-0.69575,1.2050743494,2.80425\H,0,-1.23575,2.1403
 817855,2.80425\C,0,-0.69575,-1.2050743494,2.80425\H,0,-1.23575,-2.1403
 817855,2.80425\C,0,-1.3915,0.,2.80425\H,0,-2.4715,0.,2.80425\C,0,0.,0.
 ,-1.10425\C,0,0.,-1.2050743494,-1.8\H,0,0.,-2.1403817855,-1.26\H,0,0.,

 Normal termination of Gaussian 09 at Sun Mar 19 03:55:29 2017.
