 Gaussian 09, Revision D.01,
 Gaussian 09:  EM64L-G09RevD.01 24-Apr-2013

 ----------------------------------------------
 #p b3lyp empiricaldispersion=gd3bj jun-cc-pVTZ
 ----------------------------------------------

 ---------------------
 benzene dimer 3.40425
 ---------------------
 Symbolic Z-matrix:
 Charge =  0 Multiplicity = 1

                         Standard orientation:
 ---------------------------------------------------------------------
 Center     Atomic      Atomic             Coordinates (Angstroms)
 Number     Number       Type             X           Y           Z
 ---------------------------------------------------------------------
      1          6           0       -1.391500    0.000000   -2.950000
      2          1           0       -2.471500    0.000000   -2.950000
      3          6           0       -0.695750    1.205074   -2.950000
      4          1           0       -1.235750    2.140382   -2.950000
      5          6           0       -0.695750   -1.205074   -2.950000
      6          1           0       -1.235750   -2.140382   -2.950000
      7          6           0        0.695750    1.205074   -2.950000
      8          1           0        1.235750    2.140382   -2.950000
      9          6           0        0.695750   -1.205074   -2.950000
     10          1           0        1.235750   -2.140382   -2.950000
     11          6           0        1.391500    0.000000   -2.950000
     12          1           0        2.471500    0.000000   -2.950000
     13          6           0        0.000000    0.000000    1.558500
     14          6           0        0.000000   -1.205074    2.254250
     15          1           0        0.000000   -2.140382    1.714250
     16          1           0        0.000000    0.000000    0.478500
     17          6           0        0.000000   -1.205074    3.645750
     18          1           0        0.000000   -2.140382    4.185750
     19          6           0        0.000000    0.000000    4.341500
     20          1           0        0.000000    0.000000    5.421500
     21          6           0        0.000000    1.205074    3.645750
     22          1           0        0.000000    2.140382    4.185750
     23          6           0        0.000000    1.205074    2.254250
     24          1           0        0.000000    2.140382    1.714250
 ---------------------------------------------------------------------

 SCF Done:  E(RB3LYP) =  -464.709279295     A.U. after   10 cycles

 The electronic state is 1-A1.
 Alpha  occ. eigenvalues --  -10.18312 -10.18288 -10.18282 -10.18229 -10.18222
 Alpha  occ. eigenvalues --  -10.18199 -10.17719 -10.17686 -10.17647 -10.17607
 Alpha  occ. eigenvalues --  -10.17600 -10.17480  -0.86222  -0.85582  -0.75350
 Alpha  occ. eigenvalues --   -0.75338  -0.74733  -0.74689  -0.61010  -0.61006
 Alpha  occ. eigenvalues --   -0.60395  -0.60367  -0.53200  -0.52575  -0.46803
 Alpha  occ. eigenvalues --   -0.46186  -0.45478  -0.44847  -0.42941  -0.42926
 Alpha  occ. eigenvalues --   -0.42347  -0.42277  -0.37681  -0.37031  -0.35193
 Alpha  occ. eigenvalues --   -0.35182  -0.34593  -0.34508  -0.26304  -0.26299
 Alpha  occ. eigenvalues --   -0.25677  -0.25616
 Alpha virt. eigenvalues --   -0.02034  -0.01993  -0.01352  -0.01346  -0.00770
 Alpha virt. eigenvalues --    0.00376   0.00700   0.01219   0.02068   0.02325
 Alpha virt. eigenvalues --    0.03355   0.03374   0.04380   0.04382   0.04420

 Mulliken charges:
               1
     1  C   -0.135267
     2  H    0.117450
     3  C   -0.114421
     4  H    0.118159
     5  C   -0.114421
     6  H    0.118159
     7  C   -0.114421
     8  H    0.118159
     9  C   -0.114421
    10  H    0.118159
    11  C   -0.135267
    12  H    0.117450
    13  C   -0.086544
    14  C   -0.128899
    15  H    0.112356
    16  H    0.145357
    17  C   -0.119889
    18  H    0.116633
    19  C   -0.109322
    20  H    0.110792
    21  C   -0.119889
    22  H    0.116633
    23  C   -0.128899
    24  H    0.112356
 Sum of Mulliken charges =   0.00000

 Dipole moment (field-independent basis, Debye):
    X=              0.0000    Y=              0.0000    Z=             -0.2610  Tot=              0.2610
 Quadrupole moment (field-independent basis, Debye-Ang):
   XX=            -72.1638   YY=            -64.9165   ZZ=            -72.7671
   XY=              0.0000   XZ=              0.0000   YZ=              0.0000

 1\1\GINC-HOLY2A14108\SP\RB3LYP\Jun-CC-pVTZ\C12H12\ROOT\19-Mar-2017\0\\
 #p b3lyp empiricaldispersion=gd3bj jun-cc-pVTZ\\benzene dimer 3.40425\
 \0,1\C,0,1.3915,0.,3.40425\H,0,2.4715,0.,3.40425\C,0,0.69575,1.2050743
 494,3.40425\H,0,1.23575,2.1403817855,3.40425\C,0,0.69575,-1.2050743494
 ,3.40425\H,0,1.23575,-2.1403817855,3.40425\C,0,-0.69575,1.2050743494,3
 .40425\H,0,-1.23575,2.1403817855,3.40425\C,0,-0.69575,-1.2050743494,3.
 40425\H,0,-1.23575,-2.1403817855,3.40425\C,0,-1.3915,0.,3.40425\H,0,-2
 .4715,0.,3.40425\C,0,0.,0.,-1.10425\C,0,0.,-1.2050743494,-1.8\H,0,0.,-

 Normal termination of Gaussian 09 at Sun Mar 19 01:10:13 2017.
