 Gaussian 09, Revision D.01,
 Gaussian 09:  EM64L-G09RevD.01 24-Apr-2013

 ------------------------------------------
 #p b3lyp empiricaldispersion=gd3bj cc-pVDZ
 ------------------------------------------

 ---------------------
 benzene dimer 2.70425
 ---------------------
 Symbolic Z-matrix:
 Charge =  0 Multiplicity = 1

                         Standard orientation:
 ---------------------------------------------------------------------
 Center     Atomic      Atomic             Coordinates (Angstroms)
 Number     Number       Type             X           Y           Z
 ---------------------------------------------------------------------
      1          6           0       -1.391500    0.000000   -2.600000
      2          1           0       -2.471500    0.000000   -2.600000
      3          6           0       -0.695750    1.205074   -2.600000
      4          1           0       -1.235750    2.140382   -2.600000
      5          6           0       -0.695750   -1.205074   -2.600000
      6          1           0       -1.235750   -2.140382   -2.600000
      7          6           0        0.695750    1.205074   -2.600000
      8          1           0        1.235750    2.140382   -2.600000
      9          6           0        0.695750   -1.205074   -2.600000
     10          1           0        1.235750   -2.140382   -2.600000
     11          6           0        1.391500    0.000000   -2.600000
     12          1           0        2.471500    0.000000   -2.600000
     13          6           0        0.000000    0.000000    1.208500
     14          6           0        0.000000   -1.205074    1.904250
     15          1           0        0.000000   -2.140382    1.364250
     16          1           0        0.000000    0.000000    0.128500
     17          6           0        0.000000   -1.205074    3.295750
     18          1           0        0.000000   -2.140382    3.835750
     19          6           0        0.000000    0.000000    3.991500
     20          1           0        0.000000    0.000000    5.071500
     21          6           0        0.000000    1.205074    3.295750
     22          1           0        0.000000    2.140382    3.835750
     23          6           0        0.000000    1.205074    1.904250
     24          1           0        0.000000    2.140382    1.364250
 ---------------------------------------------------------------------

 SCF Done:  E(RB3LYP) =  -464.566944763     A.U. after   13 cycles

 The electronic state is 1-A1.
 Alpha  occ. eigenvalues --  -10.19245 -10.19225 -10.19213 -10.19174 -10.19160
 Alpha  occ. eigenvalues --  -10.19143 -10.18283 -10.18252 -10.18216 -10.18134
 Alpha  occ. eigenvalues --  -10.18130 -10.17879  -0.85995  -0.84940  -0.75143
 Alpha  occ. eigenvalues --   -0.75122  -0.74151  -0.74070  -0.60735  -0.60731
 Alpha  occ. eigenvalues --   -0.59758  -0.59708  -0.52770  -0.51782  -0.46526
 Alpha  occ. eigenvalues --   -0.45575  -0.45021  -0.44002  -0.42569  -0.42544
 Alpha  occ. eigenvalues --   -0.41630  -0.41599  -0.37188  -0.36189  -0.34772
 Alpha  occ. eigenvalues --   -0.34756  -0.33822  -0.33569  -0.25870  -0.25850
 Alpha  occ. eigenvalues --   -0.24826  -0.24683
 Alpha virt. eigenvalues --   -0.00930  -0.00916   0.00106   0.00145   0.05275
 Alpha virt. eigenvalues --    0.07029   0.08846   0.09774   0.10925   0.11169
 Alpha virt. eigenvalues --    0.13263   0.13333   0.14302   0.14623   0.15004

 Mulliken charges:
               1
     1  C    0.036241
     2  H   -0.033392
     3  C    0.033721
     4  H   -0.034111
     5  C    0.033721
     6  H   -0.034111
     7  C    0.033721
     8  H   -0.034111
     9  C    0.033721
    10  H   -0.034111
    11  C    0.036241
    12  H   -0.033392
    13  C    0.053573
    14  C    0.026411
    15  H   -0.043408
    16  H   -0.013794
    17  C    0.037317
    18  H   -0.039476
    19  C    0.033781
    20  H   -0.039388
    21  C    0.037317
    22  H   -0.039476
    23  C    0.026411
    24  H   -0.043408
 Sum of Mulliken charges =   0.00000

 Dipole moment (field-independent basis, Debye):
    X=              0.0000    Y=              0.0000    Z=             -0.4476  Tot=              0.4476
 Quadrupole moment (field-independent basis, Debye-Ang):
   XX=            -70.7009   YY=            -64.2456   ZZ=            -71.4482
   XY=              0.0000   XZ=              0.0000   YZ=              0.0000

 Normal termination of Gaussian 09 at Sun Mar 19 00:46:19 2017.
