 Gaussian 09, Revision D.01,
 Gaussian 09:  EM64L-G09RevD.01 24-Apr-2013

 -------------------------------------------
 #p pbe1pbe empiricaldispersion=gd3bj 6-31g*
 -------------------------------------------

 ---------------------
 benzene dimer 3.90425
 ---------------------
 Symbolic Z-matrix:
 Charge =  0 Multiplicity = 1

                         Standard orientation:
 ---------------------------------------------------------------------
 Center     Atomic      Atomic             Coordinates (Angstroms)
 Number     Number       Type             X           Y           Z
 ---------------------------------------------------------------------
      1          6           0       -1.391500    0.000000   -3.200000
      2          1           0       -2.471500    0.000000   -3.200000
      3          6           0       -0.695750    1.205074   -3.200000
      4          1           0       -1.235750    2.140382   -3.200000
      5          6           0       -0.695750   -1.205074   -3.200000
      6          1           0       -1.235750   -2.140382   -3.200000
      7          6           0        0.695750    1.205074   -3.200000
      8          1           0        1.235750    2.140382   -3.200000
      9          6           0        0.695750   -1.205074   -3.200000
     10          1           0        1.235750   -2.140382   -3.200000
     11          6           0        1.391500    0.000000   -3.200000
     12          1           0        2.471500    0.000000   -3.200000
     13          6           0        0.000000    0.000000    1.808500
     14          6           0        0.000000   -1.205074    2.504250
     15          1           0        0.000000   -2.140382    1.964250
     16          1           0        0.000000    0.000000    0.728500
     17          6           0        0.000000   -1.205074    3.895750
     18          1           0        0.000000   -2.140382    4.435750
     19          6           0        0.000000    0.000000    4.591500
     20          1           0        0.000000    0.000000    5.671500
     21          6           0        0.000000    1.205074    3.895750
     22          1           0        0.000000    2.140382    4.435750
     23          6           0        0.000000    1.205074    2.504250
     24          1           0        0.000000    2.140382    1.964250
 ---------------------------------------------------------------------

 SCF Done:  E(RPBE1PBE) =  -463.948208433     A.U. after   12 cycles

 The electronic state is 1-A1.
 Alpha  occ. eigenvalues --  -10.23700 -10.23672 -10.23668 -10.23611 -10.23607
 Alpha  occ. eigenvalues --  -10.23579 -10.23188 -10.23153 -10.23118 -10.23078
 Alpha  occ. eigenvalues --  -10.23072 -10.22972  -0.87701  -0.87156  -0.76630
 Alpha  occ. eigenvalues --   -0.76622  -0.76106  -0.76069  -0.61904  -0.61901
 Alpha  occ. eigenvalues --   -0.61380  -0.61355  -0.53854  -0.53320  -0.47497
 Alpha  occ. eigenvalues --   -0.46969  -0.45544  -0.45005  -0.43205  -0.43193
 Alpha  occ. eigenvalues --   -0.42698  -0.42629  -0.37774  -0.37218  -0.35182
 Alpha  occ. eigenvalues --   -0.35174  -0.34670  -0.34610  -0.25965  -0.25954
 Alpha  occ. eigenvalues --   -0.25436  -0.25400
 Alpha virt. eigenvalues --    0.00752   0.00759   0.01276   0.01307   0.10204
 Alpha virt. eigenvalues --    0.10699   0.15845   0.15877   0.16277   0.16370
 Alpha virt. eigenvalues --    0.17458   0.17990   0.19584   0.19600   0.20033

 Mulliken charges:
               1
     1  C   -0.168884
     2  H    0.170180
     3  C   -0.169767
     4  H    0.169488
     5  C   -0.169767
     6  H    0.169488
     7  C   -0.169767
     8  H    0.169488
     9  C   -0.169767
    10  H    0.169488
    11  C   -0.168884
    12  H    0.170180
    13  C   -0.172101
    14  C   -0.169440
    15  H    0.167737
    16  H    0.180487
    17  C   -0.168717
    18  H    0.166622
    19  C   -0.169026
    20  H    0.166760
    21  C   -0.168717
    22  H    0.166622
    23  C   -0.169440
    24  H    0.167737
 Sum of Mulliken charges =   0.00000

 Dipole moment (field-independent basis, Debye):
    X=              0.0000    Y=              0.0000    Z=             -0.1816  Tot=              0.1816
 Quadrupole moment (field-independent basis, Debye-Ang):
   XX=            -69.5918   YY=            -61.8037   ZZ=            -70.1024
   XY=              0.0000   XZ=              0.0000   YZ=              0.0000

 1\1\GINC-HOLY2B09106\SP\RPBE1PBE\6-31G(d)\C12H12\EKWAN\19-Mar-2017\0\\
 #p pbe1pbe empiricaldispersion=gd3bj 6-31g*\\benzene dimer 3.90425\\0,
 1\C,0,1.3915,0.,3.90425\H,0,2.4715,0.,3.90425\C,0,0.69575,1.2050743494
 ,3.90425\H,0,1.23575,2.1403817855,3.90425\C,0,0.69575,-1.2050743494,3.
 90425\H,0,1.23575,-2.1403817855,3.90425\C,0,-0.69575,1.2050743494,3.90
 425\H,0,-1.23575,2.1403817855,3.90425\C,0,-0.69575,-1.2050743494,3.904
 25\H,0,-1.23575,-2.1403817855,3.90425\C,0,-1.3915,0.,3.90425\H,0,-2.47
 15,0.,3.90425\C,0,0.,0.,-1.10425\C,0,0.,-1.2050743494,-1.8\H,0,0.,-2.1

 Normal termination of Gaussian 09 at Sun Mar 19 01:33:24 2017.
