 Gaussian 09, Revision D.01,
 Gaussian 09:  EM64L-G09RevD.01 24-Apr-2013

 ----------------------------------------------
 #p b3lyp empiricaldispersion=gd3bj jun-cc-pVTZ
 ----------------------------------------------

 ---------------------
 benzene dimer 2.40425
 ---------------------
 Symbolic Z-matrix:
 Charge =  0 Multiplicity = 1

                         Standard orientation:
 ---------------------------------------------------------------------
 Center     Atomic      Atomic             Coordinates (Angstroms)
 Number     Number       Type             X           Y           Z
 ---------------------------------------------------------------------
      1          6           0       -1.391500    0.000000   -2.450000
      2          1           0       -2.471500    0.000000   -2.450000
      3          6           0       -0.695750    1.205074   -2.450000
      4          1           0       -1.235750    2.140382   -2.450000
      5          6           0       -0.695750   -1.205074   -2.450000
      6          1           0       -1.235750   -2.140382   -2.450000
      7          6           0        0.695750    1.205074   -2.450000
      8          1           0        1.235750    2.140382   -2.450000
      9          6           0        0.695750   -1.205074   -2.450000
     10          1           0        1.235750   -2.140382   -2.450000
     11          6           0        1.391500    0.000000   -2.450000
     12          1           0        2.471500    0.000000   -2.450000
     13          6           0        0.000000    0.000000    1.058500
     14          6           0        0.000000   -1.205074    1.754250
     15          1           0        0.000000   -2.140382    1.214250
     16          1           0        0.000000    0.000000   -0.021500
     17          6           0        0.000000   -1.205074    3.145750
     18          1           0        0.000000   -2.140382    3.685750
     19          6           0        0.000000    0.000000    3.841500
     20          1           0        0.000000    0.000000    4.921500
     21          6           0        0.000000    1.205074    3.145750
     22          1           0        0.000000    2.140382    3.685750
     23          6           0        0.000000    1.205074    1.754250
     24          1           0        0.000000    2.140382    1.214250
 ---------------------------------------------------------------------

 SCF Done:  E(RB3LYP) =  -464.711541568     A.U. after   10 cycles

 The electronic state is 1-A1.
 Alpha  occ. eigenvalues --  -10.18502 -10.18480 -10.18470 -10.18420 -10.18409
 Alpha  occ. eigenvalues --  -10.18388 -10.17428 -10.17396 -10.17346 -10.17253
 Alpha  occ. eigenvalues --  -10.17248 -10.16934  -0.86484  -0.85246  -0.75574
 Alpha  occ. eigenvalues --   -0.75547  -0.74425  -0.74333  -0.61203  -0.61198
 Alpha  occ. eigenvalues --   -0.60077  -0.60035  -0.53405  -0.52277  -0.46971
 Alpha  occ. eigenvalues --   -0.45917  -0.45678  -0.44511  -0.43145  -0.43113
 Alpha  occ. eigenvalues --   -0.42186  -0.42056  -0.37770  -0.36722  -0.35382
 Alpha  occ. eigenvalues --   -0.35361  -0.34285  -0.33877  -0.26681  -0.26583
 Alpha  occ. eigenvalues --   -0.25389  -0.25137
 Alpha virt. eigenvalues --   -0.02374  -0.02218  -0.00992  -0.00929  -0.00766
 Alpha virt. eigenvalues --    0.00502   0.00646   0.01207   0.02296   0.02585
 Alpha virt. eigenvalues --    0.03233   0.03319   0.04476   0.04538   0.04869

 Mulliken charges:
               1
     1  C   -0.138595
     2  H    0.122659
     3  C   -0.127823
     4  H    0.123924
     5  C   -0.127823
     6  H    0.123924
     7  C   -0.127823
     8  H    0.123924
     9  C   -0.127823
    10  H    0.123924
    11  C   -0.138595
    12  H    0.122659
    13  C    0.182267
    14  C   -0.198524
    15  H    0.116237
    16  H    0.080083
    17  C   -0.134319
    18  H    0.118117
    19  C   -0.118266
    20  H    0.100364
    21  C   -0.134319
    22  H    0.118117
    23  C   -0.198524
    24  H    0.116237
 Sum of Mulliken charges =   0.00000

 Dipole moment (field-independent basis, Debye):
    X=              0.0000    Y=              0.0000    Z=             -0.5295  Tot=              0.5295
 Quadrupole moment (field-independent basis, Debye-Ang):
   XX=            -71.9372   YY=            -64.9968   ZZ=            -73.0762
   XY=              0.0000   XZ=              0.0000   YZ=              0.0000

 Normal termination of Gaussian 09 at Sun Mar 19 00:52:46 2017.
