 Gaussian 09, Revision D.01,
 Gaussian 09:  EM64L-G09RevD.01 24-Apr-2013

 -------------
 #p mp2 6-31g*
 -------------

 ---------------------
 benzene dimer 2.60425
 ---------------------
 Symbolic Z-matrix:
 Charge =  0 Multiplicity = 1

                         Standard orientation:
 ---------------------------------------------------------------------
 Center     Atomic      Atomic             Coordinates (Angstroms)
 Number     Number       Type             X           Y           Z
 ---------------------------------------------------------------------
      1          6           0       -1.391500    0.000000   -2.550000
      2          1           0       -2.471500    0.000000   -2.550000
      3          6           0       -0.695750    1.205074   -2.550000
      4          1           0       -1.235750    2.140382   -2.550000
      5          6           0       -0.695750   -1.205074   -2.550000
      6          1           0       -1.235750   -2.140382   -2.550000
      7          6           0        0.695750    1.205074   -2.550000
      8          1           0        1.235750    2.140382   -2.550000
      9          6           0        0.695750   -1.205074   -2.550000
     10          1           0        1.235750   -2.140382   -2.550000
     11          6           0        1.391500    0.000000   -2.550000
     12          1           0        2.471500    0.000000   -2.550000
     13          6           0        0.000000    0.000000    1.158500
     14          6           0        0.000000   -1.205074    1.854250
     15          1           0        0.000000   -2.140382    1.314250
     16          1           0        0.000000    0.000000    0.078500
     17          6           0        0.000000   -1.205074    3.245750
     18          1           0        0.000000   -2.140382    3.785750
     19          6           0        0.000000    0.000000    3.941500
     20          1           0        0.000000    0.000000    5.021500
     21          6           0        0.000000    1.205074    3.245750
     22          1           0        0.000000    2.140382    3.785750
     23          6           0        0.000000    1.205074    1.854250
     24          1           0        0.000000    2.140382    1.314250
 ---------------------------------------------------------------------

 SCF Done:  E(RHF) =  -461.406095648     A.U. after   12 cycles
 E2 =    -0.1513417333D+01 EUMP2 =    -0.46291951298084D+03

 The electronic state is 1-A1.
 Alpha  occ. eigenvalues --  -11.23655 -11.23605 -11.23590 -11.23483 -11.23467
 Alpha  occ. eigenvalues --  -11.23416 -11.22474 -11.22415 -11.22309 -11.22212
 Alpha  occ. eigenvalues --  -11.22198 -11.21870  -1.15036  -1.13703  -1.01448
 Alpha  occ. eigenvalues --   -1.01418  -1.00202  -1.00099  -0.82318  -0.82314
 Alpha  occ. eigenvalues --   -0.81088  -0.81042  -0.70934  -0.69692  -0.64373
 Alpha  occ. eigenvalues --   -0.63189  -0.61689  -0.60413  -0.58771  -0.58738
 Alpha  occ. eigenvalues --   -0.57584  -0.57559  -0.50311  -0.49372  -0.49351
 Alpha  occ. eigenvalues --   -0.48843  -0.48176  -0.47614  -0.33591  -0.33557
 Alpha  occ. eigenvalues --   -0.32305  -0.32049
 Alpha virt. eigenvalues --    0.14255   0.14287   0.15567   0.15634   0.23044
 Alpha virt. eigenvalues --    0.24447   0.28701   0.29085   0.30109   0.30566
 Alpha virt. eigenvalues --    0.32886   0.32936   0.33395   0.33760   0.33937

 Mulliken charges:
               1
     1  C   -0.199563
     2  H    0.204496
     3  C   -0.203767
     4  H    0.203131
     5  C   -0.203767
     6  H    0.203131
     7  C   -0.203767
     8  H    0.203131
     9  C   -0.203767
    10  H    0.203131
    11  C   -0.199563
    12  H    0.204496
    13  C   -0.209835
    14  C   -0.207412
    15  H    0.195266
    16  H    0.241005
    17  C   -0.199207
    18  H    0.195479
    19  C   -0.202529
    20  H    0.195784
    21  C   -0.199207
    22  H    0.195479
    23  C   -0.207412
    24  H    0.195266
 Sum of Mulliken charges =   0.00000

 Dipole moment (field-independent basis, Debye):
    X=              0.0000    Y=              0.0000    Z=             -0.5217  Tot=              0.5217
 Quadrupole moment (field-independent basis, Debye-Ang):
   XX=            -70.9580   YY=            -62.9347   ZZ=            -71.9153
   XY=              0.0000   XZ=              0.0000   YZ=              0.0000

 Normal termination of Gaussian 09 at Sun Mar 19 00:46:02 2017.
