 Gaussian 09, Revision D.01,
 Gaussian 09:  EM64L-G09RevD.01 24-Apr-2013

 ------------------------------------------
 #p b3lyp empiricaldispersion=gd3bj cc-pVQZ
 ------------------------------------------

 ---------------------
 benzene dimer 2.00425
 ---------------------
 Symbolic Z-matrix:
 Charge =  0 Multiplicity = 1

                         Standard orientation:
 ---------------------------------------------------------------------
 Center     Atomic      Atomic             Coordinates (Angstroms)
 Number     Number       Type             X           Y           Z
 ---------------------------------------------------------------------
      1          6           0       -1.391500    0.000000   -2.250000
      2          1           0       -2.471500    0.000000   -2.250000
      3          6           0       -0.695750    1.205074   -2.250000
      4          1           0       -1.235750    2.140382   -2.250000
      5          6           0       -0.695750   -1.205074   -2.250000
      6          1           0       -1.235750   -2.140382   -2.250000
      7          6           0        0.695750    1.205074   -2.250000
      8          1           0        1.235750    2.140382   -2.250000
      9          6           0        0.695750   -1.205074   -2.250000
     10          1           0        1.235750   -2.140382   -2.250000
     11          6           0        1.391500    0.000000   -2.250000
     12          1           0        2.471500    0.000000   -2.250000
     13          6           0        0.000000    0.000000    0.858500
     14          6           0        0.000000   -1.205074    1.554250
     15          1           0        0.000000   -2.140382    1.014250
     16          1           0        0.000000    0.000000   -0.221500
     17          6           0        0.000000   -1.205074    2.945750
     18          1           0        0.000000   -2.140382    3.485750
     19          6           0        0.000000    0.000000    3.641500
     20          1           0        0.000000    0.000000    4.721500
     21          6           0        0.000000    1.205074    2.945750
     22          1           0        0.000000    2.140382    3.485750
     23          6           0        0.000000    1.205074    1.554250
     24          1           0        0.000000    2.140382    1.014250
 ---------------------------------------------------------------------

 SCF Done:  E(RB3LYP) =  -464.739201050     A.U. after   17 cycles

 The electronic state is 1-A1.
 Alpha  occ. eigenvalues --  -10.18267 -10.18242 -10.18234 -10.18181 -10.18172
 Alpha  occ. eigenvalues --  -10.18147 -10.16804 -10.16778 -10.16712 -10.16566
 Alpha  occ. eigenvalues --  -10.16563 -10.16013  -0.86653  -0.84837  -0.75663
 Alpha  occ. eigenvalues --   -0.75623  -0.74062  -0.73938  -0.61275  -0.61272
 Alpha  occ. eigenvalues --   -0.59742  -0.59719  -0.53571  -0.52030  -0.47052
 Alpha  occ. eigenvalues --   -0.45765  -0.45743  -0.44166  -0.43266  -0.43224
 Alpha  occ. eigenvalues --   -0.42344  -0.41768  -0.37451  -0.36416  -0.35481
 Alpha  occ. eigenvalues --   -0.35455  -0.33983  -0.33079  -0.27010  -0.26752
 Alpha  occ. eigenvalues --   -0.25090  -0.24612
 Alpha virt. eigenvalues --   -0.02425  -0.02206  -0.00434  -0.00367   0.01803
 Alpha virt. eigenvalues --    0.03960   0.04033   0.05089   0.06660   0.06799
 Alpha virt. eigenvalues --    0.07822   0.08496   0.10555   0.10774   0.10944

 Mulliken charges:
               1
     1  C   -0.107751
     2  H    0.115231
     3  C   -0.126734
     4  H    0.120165
     5  C   -0.126734
     6  H    0.120165
     7  C   -0.126734
     8  H    0.120165
     9  C   -0.126734
    10  H    0.120165
    11  C   -0.107751
    12  H    0.115231
    13  C   -0.131852
    14  C   -0.135745
    15  H    0.106804
    16  H    0.204573
    17  C   -0.111819
    18  H    0.110918
    19  C   -0.114064
    20  H    0.112344
    21  C   -0.111819
    22  H    0.110918
    23  C   -0.135745
    24  H    0.106804
 Sum of Mulliken charges =   0.00000

 Dipole moment (field-independent basis, Debye):
    X=              0.0000    Y=              0.0000    Z=             -0.7163  Tot=              0.7163
 Quadrupole moment (field-independent basis, Debye-Ang):
   XX=            -71.4225   YY=            -64.7898   ZZ=            -73.0245
   XY=              0.0000   XZ=              0.0000   YZ=              0.0000

 Normal termination of Gaussian 09 at Sun Mar 19 01:37:39 2017.
