 Gaussian 09, Revision D.01,
 Gaussian 09:  EM64L-G09RevD.01 24-Apr-2013

 ------------------------------------------------
 #p pbe1pbe empiricaldispersion=gd3bj may-cc-pVQZ
 ------------------------------------------------

 ---------------------
 benzene dimer 3.40425
 ---------------------
 Symbolic Z-matrix:
 Charge =  0 Multiplicity = 1

                         Standard orientation:
 ---------------------------------------------------------------------
 Center     Atomic      Atomic             Coordinates (Angstroms)
 Number     Number       Type             X           Y           Z
 ---------------------------------------------------------------------
      1          6           0       -1.391500    0.000000   -2.950000
      2          1           0       -2.471500    0.000000   -2.950000
      3          6           0       -0.695750    1.205074   -2.950000
      4          1           0       -1.235750    2.140382   -2.950000
      5          6           0       -0.695750   -1.205074   -2.950000
      6          1           0       -1.235750   -2.140382   -2.950000
      7          6           0        0.695750    1.205074   -2.950000
      8          1           0        1.235750    2.140382   -2.950000
      9          6           0        0.695750   -1.205074   -2.950000
     10          1           0        1.235750   -2.140382   -2.950000
     11          6           0        1.391500    0.000000   -2.950000
     12          1           0        2.471500    0.000000   -2.950000
     13          6           0        0.000000    0.000000    1.558500
     14          6           0        0.000000   -1.205074    2.254250
     15          1           0        0.000000   -2.140382    1.714250
     16          1           0        0.000000    0.000000    0.478500
     17          6           0        0.000000   -1.205074    3.645750
     18          1           0        0.000000   -2.140382    4.185750
     19          6           0        0.000000    0.000000    4.341500
     20          1           0        0.000000    0.000000    5.421500
     21          6           0        0.000000    1.205074    3.645750
     22          1           0        0.000000    2.140382    4.185750
     23          6           0        0.000000    1.205074    2.254250
     24          1           0        0.000000    2.140382    1.714250
 ---------------------------------------------------------------------

 SCF Done:  E(RPBE1PBE) =  -464.134619847     A.U. after   10 cycles

 The electronic state is 1-A1.
 Alpha  occ. eigenvalues --  -10.23133 -10.23105 -10.23099 -10.23040 -10.23034
 Alpha  occ. eigenvalues --  -10.23006 -10.22499 -10.22462 -10.22422 -10.22379
 Alpha  occ. eigenvalues --  -10.22371 -10.22248  -0.88587  -0.87908  -0.77404
 Alpha  occ. eigenvalues --   -0.77392  -0.76750  -0.76704  -0.62636  -0.62632
 Alpha  occ. eigenvalues --   -0.61984  -0.61955  -0.54584  -0.53921  -0.47968
 Alpha  occ. eigenvalues --   -0.47314  -0.46627  -0.45958  -0.43902  -0.43886
 Alpha  occ. eigenvalues --   -0.43272  -0.43199  -0.38938  -0.38252  -0.35925
 Alpha  occ. eigenvalues --   -0.35913  -0.35289  -0.35203  -0.27159  -0.27152
 Alpha  occ. eigenvalues --   -0.26494  -0.26432
 Alpha virt. eigenvalues --   -0.01359  -0.01317  -0.00635  -0.00630  -0.00228
 Alpha virt. eigenvalues --    0.00961   0.01164   0.01691   0.02589   0.02749
 Alpha virt. eigenvalues --    0.03692   0.03745   0.04427   0.04646   0.04683

 Mulliken charges:
               1
     1  C   -0.202332
     2  H    0.177487
     3  C   -0.164676
     4  H    0.177823
     5  C   -0.164676
     6  H    0.177823
     7  C   -0.164676
     8  H    0.177823
     9  C   -0.164676
    10  H    0.177823
    11  C   -0.202332
    12  H    0.177487
    13  C   -0.194931
    14  C   -0.154234
    15  H    0.197214
    16  H    0.164385
    17  C   -0.193303
    18  H    0.182819
    19  C   -0.221137
    20  H    0.183792
    21  C   -0.193303
    22  H    0.182819
    23  C   -0.154234
    24  H    0.197214
 Sum of Mulliken charges =   0.00000

 Dipole moment (field-independent basis, Debye):
    X=              0.0000    Y=              0.0000    Z=             -0.2723  Tot=              0.2723
 Quadrupole moment (field-independent basis, Debye-Ang):
   XX=            -71.4081   YY=            -63.7083   ZZ=            -71.9661
   XY=              0.0000   XZ=              0.0000   YZ=              0.0000

 Normal termination of Gaussian 09 at Sun Mar 19 04:03:47 2017.
