 Gaussian 09, Revision D.01,
 Gaussian 09:  EM64L-G09RevD.01 24-Apr-2013

 ---------------
 #p b3lyp 6-31g*
 ---------------

 ---------------------
 benzene dimer 3.40425
 ---------------------
 Symbolic Z-matrix:
 Charge =  0 Multiplicity = 1

                         Standard orientation:
 ---------------------------------------------------------------------
 Center     Atomic      Atomic             Coordinates (Angstroms)
 Number     Number       Type             X           Y           Z
 ---------------------------------------------------------------------
      1          6           0       -1.391500    0.000000   -2.950000
      2          1           0       -2.471500    0.000000   -2.950000
      3          6           0       -0.695750    1.205074   -2.950000
      4          1           0       -1.235750    2.140382   -2.950000
      5          6           0       -0.695750   -1.205074   -2.950000
      6          1           0       -1.235750   -2.140382   -2.950000
      7          6           0        0.695750    1.205074   -2.950000
      8          1           0        1.235750    2.140382   -2.950000
      9          6           0        0.695750   -1.205074   -2.950000
     10          1           0        1.235750   -2.140382   -2.950000
     11          6           0        1.391500    0.000000   -2.950000
     12          1           0        2.471500    0.000000   -2.950000
     13          6           0        0.000000    0.000000    1.558500
     14          6           0        0.000000   -1.205074    2.254250
     15          1           0        0.000000   -2.140382    1.714250
     16          1           0        0.000000    0.000000    0.478500
     17          6           0        0.000000   -1.205074    3.645750
     18          1           0        0.000000   -2.140382    4.185750
     19          6           0        0.000000    0.000000    4.341500
     20          1           0        0.000000    0.000000    5.421500
     21          6           0        0.000000    1.205074    3.645750
     22          1           0        0.000000    2.140382    4.185750
     23          6           0        0.000000    1.205074    2.254250
     24          1           0        0.000000    2.140382    1.714250
 ---------------------------------------------------------------------

 SCF Done:  E(RB3LYP) =  -464.497381417     A.U. after   13 cycles

 The electronic state is 1-A1.
 Alpha  occ. eigenvalues --  -10.18803 -10.18778 -10.18773 -10.18721 -10.18715
 Alpha  occ. eigenvalues --  -10.18690 -10.18162 -10.18127 -10.18090 -10.18046
 Alpha  occ. eigenvalues --  -10.18039 -10.17902  -0.85143  -0.84453  -0.74401
 Alpha  occ. eigenvalues --   -0.74390  -0.73740  -0.73690  -0.60128  -0.60124
 Alpha  occ. eigenvalues --   -0.59471  -0.59436  -0.52336  -0.51665  -0.46228
 Alpha  occ. eigenvalues --   -0.45569  -0.44180  -0.43499  -0.42084  -0.42069
 Alpha  occ. eigenvalues --   -0.41449  -0.41364  -0.36390  -0.35679  -0.34295
 Alpha  occ. eigenvalues --   -0.34285  -0.33653  -0.33554  -0.24955  -0.24942
 Alpha  occ. eigenvalues --   -0.24290  -0.24237
 Alpha virt. eigenvalues --    0.00219   0.00227   0.00875   0.00916   0.09080
 Alpha virt. eigenvalues --    0.09694   0.14433   0.14492   0.14994   0.15041
 Alpha virt. eigenvalues --    0.16411   0.17076   0.18223   0.18237   0.18722

 Mulliken charges:
               1
     1  C   -0.127846
     2  H    0.130087
     3  C   -0.129221
     4  H    0.129271
     5  C   -0.129221
     6  H    0.129271
     7  C   -0.129221
     8  H    0.129271
     9  C   -0.129221
    10  H    0.129271
    11  C   -0.127846
    12  H    0.130087
    13  C   -0.137679
    14  C   -0.129088
    15  H    0.126363
    16  H    0.146516
    17  C   -0.127872
    18  H    0.125264
    19  C   -0.128340
    20  H    0.125490
    21  C   -0.127872
    22  H    0.125264
    23  C   -0.129088
    24  H    0.126363
 Sum of Mulliken charges =   0.00000

 Dipole moment (field-independent basis, Debye):
    X=              0.0000    Y=              0.0000    Z=             -0.2739  Tot=              0.2739
 Quadrupole moment (field-independent basis, Debye-Ang):
   XX=            -69.7725   YY=            -62.8880   ZZ=            -70.2796
   XY=              0.0000   XZ=              0.0000   YZ=              0.0000

 Normal termination of Gaussian 09 at Sun Mar 19 00:51:29 2017.
