 Gaussian 09, Revision D.01,
 Gaussian 09:  EM64L-G09RevD.01 24-Apr-2013

 -------------------------------------------
 #p pbe1pbe empiricaldispersion=gd3bj 6-31g*
 -------------------------------------------

 ---------------------
 benzene dimer 2.80425
 ---------------------
 Symbolic Z-matrix:
 Charge =  0 Multiplicity = 1

                         Standard orientation:
 ---------------------------------------------------------------------
 Center     Atomic      Atomic             Coordinates (Angstroms)
 Number     Number       Type             X           Y           Z
 ---------------------------------------------------------------------
      1          6           0       -1.391500    0.000000   -2.650000
      2          1           0       -2.471500    0.000000   -2.650000
      3          6           0       -0.695750    1.205074   -2.650000
      4          1           0       -1.235750    2.140382   -2.650000
      5          6           0       -0.695750   -1.205074   -2.650000
      6          1           0       -1.235750   -2.140382   -2.650000
      7          6           0        0.695750    1.205074   -2.650000
      8          1           0        1.235750    2.140382   -2.650000
      9          6           0        0.695750   -1.205074   -2.650000
     10          1           0        1.235750   -2.140382   -2.650000
     11          6           0        1.391500    0.000000   -2.650000
     12          1           0        2.471500    0.000000   -2.650000
     13          6           0        0.000000    0.000000    1.258500
     14          6           0        0.000000   -1.205074    1.954250
     15          1           0        0.000000   -2.140382    1.414250
     16          1           0        0.000000    0.000000    0.178500
     17          6           0        0.000000   -1.205074    3.345750
     18          1           0        0.000000   -2.140382    3.885750
     19          6           0        0.000000    0.000000    4.041500
     20          1           0        0.000000    0.000000    5.121500
     21          6           0        0.000000    1.205074    3.345750
     22          1           0        0.000000    2.140382    3.885750
     23          6           0        0.000000    1.205074    1.954250
     24          1           0        0.000000    2.140382    1.414250
 ---------------------------------------------------------------------

 SCF Done:  E(RPBE1PBE) =  -463.951341072     A.U. after   12 cycles

 The electronic state is 1-A1.
 Alpha  occ. eigenvalues --  -10.23918 -10.23893 -10.23882 -10.23832 -10.23819
 Alpha  occ. eigenvalues --  -10.23796 -10.22921 -10.22882 -10.22839 -10.22761
 Alpha  occ. eigenvalues --  -10.22755 -10.22501  -0.87947  -0.86849  -0.76858
 Alpha  occ. eigenvalues --   -0.76836  -0.75820  -0.75733  -0.62109  -0.62104
 Alpha  occ. eigenvalues --   -0.61082  -0.61027  -0.54057  -0.53012  -0.47676
 Alpha  occ. eigenvalues --   -0.46664  -0.45762  -0.44692  -0.43413  -0.43386
 Alpha  occ. eigenvalues --   -0.42425  -0.42353  -0.37999  -0.36926  -0.35383
 Alpha  occ. eigenvalues --   -0.35366  -0.34383  -0.34156  -0.26228  -0.26220
 Alpha  occ. eigenvalues --   -0.25165  -0.25047
 Alpha virt. eigenvalues --    0.00511   0.00525   0.01562   0.01622   0.10011
 Alpha virt. eigenvalues --    0.11025   0.15557   0.15760   0.16562   0.16689
 Alpha virt. eigenvalues --    0.17242   0.18285   0.19442   0.19447   0.20195

 Mulliken charges:
               1
     1  C   -0.167977
     2  H    0.172383
     3  C   -0.171135
     4  H    0.171194
     5  C   -0.171135
     6  H    0.171194
     7  C   -0.171135
     8  H    0.171194
     9  C   -0.171135
    10  H    0.171194
    11  C   -0.167977
    12  H    0.172383
    13  C   -0.173126
    14  C   -0.172416
    15  H    0.164535
    16  H    0.193331
    17  C   -0.169412
    18  H    0.164787
    19  C   -0.169354
    20  H    0.165116
    21  C   -0.169412
    22  H    0.164787
    23  C   -0.172416
    24  H    0.164535
 Sum of Mulliken charges =   0.00000

 Dipole moment (field-independent basis, Debye):
    X=              0.0000    Y=              0.0000    Z=             -0.4496  Tot=              0.4496
 Quadrupole moment (field-independent basis, Debye-Ang):
   XX=            -69.4448   YY=            -61.8785   ZZ=            -70.1495
   XY=              0.0000   XZ=              0.0000   YZ=              0.0000

 Normal termination of Gaussian 09 at Sun Mar 19 01:34:44 2017.
