 Gaussian 09, Revision D.01,
 Gaussian 09:  EM64L-G09RevD.01 24-Apr-2013

 ------------------------------------------
 #p b3lyp empiricaldispersion=gd3bj cc-pVDZ
 ------------------------------------------

 ---------------------
 benzene dimer 1.90425
 ---------------------
 Symbolic Z-matrix:
 Charge =  0 Multiplicity = 1

                         Standard orientation:
 ---------------------------------------------------------------------
 Center     Atomic      Atomic             Coordinates (Angstroms)
 Number     Number       Type             X           Y           Z
 ---------------------------------------------------------------------
      1          6           0       -1.391500    0.000000   -2.200000
      2          1           0       -2.471500    0.000000   -2.200000
      3          6           0       -0.695750    1.205074   -2.200000
      4          1           0       -1.235750    2.140382   -2.200000
      5          6           0       -0.695750   -1.205074   -2.200000
      6          1           0       -1.235750   -2.140382   -2.200000
      7          6           0        0.695750    1.205074   -2.200000
      8          1           0        1.235750    2.140382   -2.200000
      9          6           0        0.695750   -1.205074   -2.200000
     10          1           0        1.235750   -2.140382   -2.200000
     11          6           0        1.391500    0.000000   -2.200000
     12          1           0        2.471500    0.000000   -2.200000
     13          6           0        0.000000    0.000000    0.808500
     14          6           0        0.000000   -1.205074    1.504250
     15          1           0        0.000000   -2.140382    0.964250
     16          1           0        0.000000    0.000000   -0.271500
     17          6           0        0.000000   -1.205074    2.895750
     18          1           0        0.000000   -2.140382    3.435750
     19          6           0        0.000000    0.000000    3.591500
     20          1           0        0.000000    0.000000    4.671500
     21          6           0        0.000000    1.205074    2.895750
     22          1           0        0.000000    2.140382    3.435750
     23          6           0        0.000000    1.205074    1.504250
     24          1           0        0.000000    2.140382    0.964250
 ---------------------------------------------------------------------

 SCF Done:  E(RB3LYP) =  -464.561909859     A.U. after   13 cycles

 The electronic state is 1-A1.
 Alpha  occ. eigenvalues --  -10.19561 -10.19539 -10.19528 -10.19486 -10.19475
 Alpha  occ. eigenvalues --  -10.19457 -10.17872 -10.17852 -10.17793 -10.17604
 Alpha  occ. eigenvalues --  -10.17601 -10.16922  -0.86575  -0.84444  -0.75551
 Alpha  occ. eigenvalues --   -0.75509  -0.73709  -0.73572  -0.61060  -0.61059
 Alpha  occ. eigenvalues --   -0.59316  -0.59301  -0.53203  -0.51441  -0.46794
 Alpha  occ. eigenvalues --   -0.45362  -0.45350  -0.43529  -0.42932  -0.42890
 Alpha  occ. eigenvalues --   -0.41968  -0.41226  -0.36829  -0.35771  -0.35087
 Alpha  occ. eigenvalues --   -0.35063  -0.33383  -0.32265  -0.26632  -0.26336
 Alpha  occ. eigenvalues --   -0.24424  -0.23890
 Alpha virt. eigenvalues --   -0.01519  -0.01357   0.00674   0.00676   0.05027
 Alpha virt. eigenvalues --    0.07615   0.08344   0.09624   0.11421   0.11694
 Alpha virt. eigenvalues --    0.13103   0.13779   0.14567   0.15126   0.15410

 Mulliken charges:
               1
     1  C    0.038350
     2  H   -0.032008
     3  C    0.033815
     4  H   -0.032688
     5  C    0.033815
     6  H   -0.032688
     7  C    0.033815
     8  H   -0.032688
     9  C    0.033815
    10  H   -0.032688
    11  C    0.038350
    12  H   -0.032008
    13  C    0.114033
    14  C    0.011606
    15  H   -0.056717
    16  H   -0.026544
    17  C    0.040942
    18  H   -0.042683
    19  C    0.031073
    20  H   -0.042049
    21  C    0.040942
    22  H   -0.042683
    23  C    0.011606
    24  H   -0.056717
 Sum of Mulliken charges =   0.00000

 Dipole moment (field-independent basis, Debye):
    X=              0.0000    Y=              0.0000    Z=             -0.8283  Tot=              0.8283
 Quadrupole moment (field-independent basis, Debye-Ang):
   XX=            -70.4189   YY=            -64.4909   ZZ=            -71.9648
   XY=              0.0000   XZ=              0.0000   YZ=              0.0000

 Normal termination of Gaussian 09 at Sun Mar 19 00:41:06 2017.
