 Gaussian 09, Revision D.01,
 Gaussian 09:  EM64L-G09RevD.01 24-Apr-2013

 ----------------------------------------------
 #p b3lyp empiricaldispersion=gd3bj jul-cc-pVDZ
 ----------------------------------------------

 ---------------------
 benzene dimer 4.90425
 ---------------------
 Symbolic Z-matrix:
 Charge =  0 Multiplicity = 1

                         Standard orientation:
 ---------------------------------------------------------------------
 Center     Atomic      Atomic             Coordinates (Angstroms)
 Number     Number       Type             X           Y           Z
 ---------------------------------------------------------------------
      1          6           0       -1.391500    0.000000   -3.700000
      2          1           0       -2.471500    0.000000   -3.700000
      3          6           0       -0.695750    1.205074   -3.700000
      4          1           0       -1.235750    2.140382   -3.700000
      5          6           0       -0.695750   -1.205074   -3.700000
      6          1           0       -1.235750   -2.140382   -3.700000
      7          6           0        0.695750    1.205074   -3.700000
      8          1           0        1.235750    2.140382   -3.700000
      9          6           0        0.695750   -1.205074   -3.700000
     10          1           0        1.235750   -2.140382   -3.700000
     11          6           0        1.391500    0.000000   -3.700000
     12          1           0        2.471500    0.000000   -3.700000
     13          6           0        0.000000    0.000000    2.308500
     14          6           0        0.000000   -1.205074    3.004250
     15          1           0        0.000000   -2.140382    2.464250
     16          1           0        0.000000    0.000000    1.228500
     17          6           0        0.000000   -1.205074    4.395750
     18          1           0        0.000000   -2.140382    4.935750
     19          6           0        0.000000    0.000000    5.091500
     20          1           0        0.000000    0.000000    6.171500
     21          6           0        0.000000    1.205074    4.395750
     22          1           0        0.000000    2.140382    4.935750
     23          6           0        0.000000    1.205074    3.004250
     24          1           0        0.000000    2.140382    2.464250
 ---------------------------------------------------------------------

 SCF Done:  E(RB3LYP) =  -464.580637253     A.U. after   10 cycles

 The electronic state is 1-A1.
 Alpha  occ. eigenvalues --  -10.19392 -10.19375 -10.19373 -10.19320 -10.19318
 Alpha  occ. eigenvalues --  -10.19292 -10.19101 -10.19079 -10.19058 -10.19018
 Alpha  occ. eigenvalues --  -10.19018 -10.18967  -0.86304  -0.86000  -0.75417
 Alpha  occ. eigenvalues --   -0.75413  -0.75120  -0.75103  -0.60993  -0.60991
 Alpha  occ. eigenvalues --   -0.60695  -0.60684  -0.53059  -0.52756  -0.46712
 Alpha  occ. eigenvalues --   -0.46410  -0.45339  -0.45036  -0.42795  -0.42789
 Alpha  occ. eigenvalues --   -0.42505  -0.42473  -0.37484  -0.37178  -0.34988
 Alpha  occ. eigenvalues --   -0.34984  -0.34696  -0.34670  -0.26115  -0.26110
 Alpha  occ. eigenvalues --   -0.25817  -0.25799
 Alpha virt. eigenvalues --   -0.01797  -0.01791  -0.01494  -0.01487  -0.00221
 Alpha virt. eigenvalues --    0.00890   0.01360   0.01741   0.02248   0.02264
 Alpha virt. eigenvalues --    0.03882   0.03940   0.04239   0.04412   0.05514

 Mulliken charges:
               1
     1  C    0.195481
     2  H   -0.199972
     3  C    0.202253
     4  H   -0.199878
     5  C    0.202253
     6  H   -0.199878
     7  C    0.202253
     8  H   -0.199878
     9  C    0.202253
    10  H   -0.199878
    11  C    0.195481
    12  H   -0.199972
    13  C    0.282433
    14  C    0.143179
    15  H   -0.197786
    16  H   -0.193790
    17  C    0.235551
    18  H   -0.200258
    19  C    0.148460
    20  H   -0.198991
    21  C    0.235551
    22  H   -0.200258
    23  C    0.143179
    24  H   -0.197786
 Sum of Mulliken charges =   0.00000

 Dipole moment (field-independent basis, Debye):
    X=              0.0000    Y=              0.0000    Z=             -0.1035  Tot=              0.1035
 Quadrupole moment (field-independent basis, Debye-Ang):
   XX=            -72.3567   YY=            -65.1358   ZZ=            -72.7169
   XY=              0.0000   XZ=              0.0000   YZ=              0.0000

 Normal termination of Gaussian 09 at Sun Mar 19 00:56:53 2017.
