 Gaussian 09, Revision D.01,
 Gaussian 09:  EM64L-G09RevD.01 24-Apr-2013

 ------------------------------------------------
 #p pbe1pbe empiricaldispersion=gd3bj may-cc-pVQZ
 ------------------------------------------------

 ---------------------
 benzene dimer 2.40425
 ---------------------
 Symbolic Z-matrix:
 Charge =  0 Multiplicity = 1

                         Standard orientation:
 ---------------------------------------------------------------------
 Center     Atomic      Atomic             Coordinates (Angstroms)
 Number     Number       Type             X           Y           Z
 ---------------------------------------------------------------------
      1          6           0       -1.391500    0.000000   -2.450000
      2          1           0       -2.471500    0.000000   -2.450000
      3          6           0       -0.695750    1.205074   -2.450000
      4          1           0       -1.235750    2.140382   -2.450000
      5          6           0       -0.695750   -1.205074   -2.450000
      6          1           0       -1.235750   -2.140382   -2.450000
      7          6           0        0.695750    1.205074   -2.450000
      8          1           0        1.235750    2.140382   -2.450000
      9          6           0        0.695750   -1.205074   -2.450000
     10          1           0        1.235750   -2.140382   -2.450000
     11          6           0        1.391500    0.000000   -2.450000
     12          1           0        2.471500    0.000000   -2.450000
     13          6           0        0.000000    0.000000    1.058500
     14          6           0        0.000000   -1.205074    1.754250
     15          1           0        0.000000   -2.140382    1.214250
     16          1           0        0.000000    0.000000   -0.021500
     17          6           0        0.000000   -1.205074    3.145750
     18          1           0        0.000000   -2.140382    3.685750
     19          6           0        0.000000    0.000000    3.841500
     20          1           0        0.000000    0.000000    4.921500
     21          6           0        0.000000    1.205074    3.145750
     22          1           0        0.000000    2.140382    3.685750
     23          6           0        0.000000    1.205074    1.754250
     24          1           0        0.000000    2.140382    1.214250
 ---------------------------------------------------------------------

 SCF Done:  E(RPBE1PBE) =  -464.136655128     A.U. after   10 cycles

 The electronic state is 1-A1.
 Alpha  occ. eigenvalues --  -10.23353 -10.23327 -10.23316 -10.23262 -10.23250
 Alpha  occ. eigenvalues --  -10.23224 -10.22198 -10.22162 -10.22109 -10.22017
 Alpha  occ. eigenvalues --  -10.22012 -10.21693  -0.88869  -0.87558  -0.77647
 Alpha  occ. eigenvalues --   -0.77619  -0.76430  -0.76330  -0.62847  -0.62842
 Alpha  occ. eigenvalues --   -0.61652  -0.61605  -0.54808  -0.53606  -0.48152
 Alpha  occ. eigenvalues --   -0.47028  -0.46848  -0.45608  -0.44125  -0.44090
 Alpha  occ. eigenvalues --   -0.43124  -0.42970  -0.38995  -0.37928  -0.36132
 Alpha  occ. eigenvalues --   -0.36110  -0.34969  -0.34573  -0.27547  -0.27459
 Alpha  occ. eigenvalues --   -0.26194  -0.25944
 Alpha virt. eigenvalues --   -0.01713  -0.01558  -0.00261  -0.00223  -0.00207
 Alpha virt. eigenvalues --    0.01102   0.01142   0.01690   0.02800   0.02982
 Alpha virt. eigenvalues --    0.03559   0.03699   0.04561   0.04815   0.05140

 Mulliken charges:
               1
     1  C   -0.194541
     2  H    0.176528
     3  C   -0.155702
     4  H    0.171035
     5  C   -0.155702
     6  H    0.171035
     7  C   -0.155702
     8  H    0.171035
     9  C   -0.155702
    10  H    0.171035
    11  C   -0.194541
    12  H    0.176528
    13  C   -0.449566
    14  C   -0.130813
    15  H    0.208577
    16  H    0.152871
    17  C   -0.140216
    18  H    0.183167
    19  C   -0.146534
    20  H    0.176495
    21  C   -0.140216
    22  H    0.183167
    23  C   -0.130813
    24  H    0.208577
 Sum of Mulliken charges =   0.00000

 Dipole moment (field-independent basis, Debye):
    X=              0.0000    Y=              0.0000    Z=             -0.5581  Tot=              0.5581
 Quadrupole moment (field-independent basis, Debye-Ang):
   XX=            -71.1757   YY=            -63.7893   ZZ=            -72.2386
   XY=              0.0000   XZ=              0.0000   YZ=              0.0000

 Normal termination of Gaussian 09 at Sun Mar 19 04:05:04 2017.
