 Gaussian 09, Revision D.01,
 Gaussian 09:  EM64L-G09RevD.01 24-Apr-2013

 ------------------------------------------
 #p b3lyp empiricaldispersion=gd3bj cc-pVDZ
 ------------------------------------------

 ---------------------
 benzene dimer 2.30425
 ---------------------
 Symbolic Z-matrix:
 Charge =  0 Multiplicity = 1

                         Standard orientation:
 ---------------------------------------------------------------------
 Center     Atomic      Atomic             Coordinates (Angstroms)
 Number     Number       Type             X           Y           Z
 ---------------------------------------------------------------------
      1          6           0       -1.391500    0.000000   -2.400000
      2          1           0       -2.471500    0.000000   -2.400000
      3          6           0       -0.695750    1.205074   -2.400000
      4          1           0       -1.235750    2.140382   -2.400000
      5          6           0       -0.695750   -1.205074   -2.400000
      6          1           0       -1.235750   -2.140382   -2.400000
      7          6           0        0.695750    1.205074   -2.400000
      8          1           0        1.235750    2.140382   -2.400000
      9          6           0        0.695750   -1.205074   -2.400000
     10          1           0        1.235750   -2.140382   -2.400000
     11          6           0        1.391500    0.000000   -2.400000
     12          1           0        2.471500    0.000000   -2.400000
     13          6           0        0.000000    0.000000    1.008500
     14          6           0        0.000000   -1.205074    1.704250
     15          1           0        0.000000   -2.140382    1.164250
     16          1           0        0.000000    0.000000   -0.071500
     17          6           0        0.000000   -1.205074    3.095750
     18          1           0        0.000000   -2.140382    3.635750
     19          6           0        0.000000    0.000000    3.791500
     20          1           0        0.000000    0.000000    4.871500
     21          6           0        0.000000    1.205074    3.095750
     22          1           0        0.000000    2.140382    3.635750
     23          6           0        0.000000    1.205074    1.704250
     24          1           0        0.000000    2.140382    1.164250
 ---------------------------------------------------------------------

 SCF Done:  E(RB3LYP) =  -464.567287263     A.U. after   13 cycles

 The electronic state is 1-A1.
 Alpha  occ. eigenvalues --  -10.19386 -10.19366 -10.19352 -10.19314 -10.19298
 Alpha  occ. eigenvalues --  -10.19282 -10.18116 -10.18087 -10.18047 -10.17923
 Alpha  occ. eigenvalues --  -10.17920 -10.17525  -0.86196  -0.84744  -0.75303
 Alpha  occ. eigenvalues --   -0.75273  -0.73973  -0.73865  -0.60868  -0.60864
 Alpha  occ. eigenvalues --   -0.59575  -0.59525  -0.52920  -0.51625  -0.46636
 Alpha  occ. eigenvalues --   -0.45445  -0.45161  -0.43807  -0.42711  -0.42677
 Alpha  occ. eigenvalues --   -0.41655  -0.41463  -0.37166  -0.36014  -0.34900
 Alpha  occ. eigenvalues --   -0.34881  -0.33643  -0.33128  -0.26148  -0.26049
 Alpha  occ. eigenvalues --   -0.24661  -0.24389
 Alpha virt. eigenvalues --   -0.01150  -0.01097   0.00323   0.00347   0.05173
 Alpha virt. eigenvalues --    0.07298   0.08537   0.09717   0.11165   0.11533
 Alpha virt. eigenvalues --    0.13196   0.13500   0.14720   0.14837   0.15236

 Mulliken charges:
               1
     1  C    0.036353
     2  H   -0.032603
     3  C    0.033113
     4  H   -0.033360
     5  C    0.033113
     6  H   -0.033360
     7  C    0.033113
     8  H   -0.033360
     9  C    0.033113
    10  H   -0.033360
    11  C    0.036353
    12  H   -0.032603
    13  C    0.078216
    14  C    0.019348
    15  H   -0.048916
    16  H   -0.013969
    17  C    0.038770
    18  H   -0.040646
    19  C    0.032542
    20  H   -0.040413
    21  C    0.038770
    22  H   -0.040646
    23  C    0.019348
    24  H   -0.048916
 Sum of Mulliken charges =   0.00000

 Dipole moment (field-independent basis, Debye):
    X=              0.0000    Y=              0.0000    Z=             -0.6078  Tot=              0.6078
 Quadrupole moment (field-independent basis, Debye-Ang):
   XX=            -70.5980   YY=            -64.3462   ZZ=            -71.6116
   XY=              0.0000   XZ=              0.0000   YZ=              0.0000

 Normal termination of Gaussian 09 at Sun Mar 19 00:42:34 2017.
