 Gaussian 09, Revision D.01,
 Gaussian 09:  EM64L-G09RevD.01 24-Apr-2013

 -----------------------------------------
 #p b3lyp empiricaldispersion=gd3bj 6-31g*
 -----------------------------------------

 ---------------------
 benzene dimer 2.70425
 ---------------------
 Symbolic Z-matrix:
 Charge =  0 Multiplicity = 1

                         Standard orientation:
 ---------------------------------------------------------------------
 Center     Atomic      Atomic             Coordinates (Angstroms)
 Number     Number       Type             X           Y           Z
 ---------------------------------------------------------------------
      1          6           0       -1.391500    0.000000   -2.600000
      2          1           0       -2.471500    0.000000   -2.600000
      3          6           0       -0.695750    1.205074   -2.600000
      4          1           0       -1.235750    2.140382   -2.600000
      5          6           0       -0.695750   -1.205074   -2.600000
      6          1           0       -1.235750   -2.140382   -2.600000
      7          6           0        0.695750    1.205074   -2.600000
      8          1           0        1.235750    2.140382   -2.600000
      9          6           0        0.695750   -1.205074   -2.600000
     10          1           0        1.235750   -2.140382   -2.600000
     11          6           0        1.391500    0.000000   -2.600000
     12          1           0        2.471500    0.000000   -2.600000
     13          6           0        0.000000    0.000000    1.208500
     14          6           0        0.000000   -1.205074    1.904250
     15          1           0        0.000000   -2.140382    1.364250
     16          1           0        0.000000    0.000000    0.128500
     17          6           0        0.000000   -1.205074    3.295750
     18          1           0        0.000000   -2.140382    3.835750
     19          6           0        0.000000    0.000000    3.991500
     20          1           0        0.000000    0.000000    5.071500
     21          6           0        0.000000    1.205074    3.295750
     22          1           0        0.000000    2.140382    3.835750
     23          6           0        0.000000    1.205074    1.904250
     24          1           0        0.000000    2.140382    1.364250
 ---------------------------------------------------------------------

 SCF Done:  E(RB3LYP) =  -464.539821357     A.U. after   13 cycles

 The electronic state is 1-A1.
 Alpha  occ. eigenvalues --  -10.18967 -10.18944 -10.18933 -10.18887 -10.18874
 Alpha  occ. eigenvalues --  -10.18852 -10.17952 -10.17915 -10.17875 -10.17792
 Alpha  occ. eigenvalues --  -10.17787 -10.17510  -0.85338  -0.84212  -0.74578
 Alpha  occ. eigenvalues --   -0.74556  -0.73517  -0.73427  -0.60286  -0.60282
 Alpha  occ. eigenvalues --   -0.59239  -0.59182  -0.52494  -0.51431  -0.46366
 Alpha  occ. eigenvalues --   -0.45341  -0.44348  -0.43253  -0.42245  -0.42219
 Alpha  occ. eigenvalues --   -0.41236  -0.41184  -0.36555  -0.35451  -0.34450
 Alpha  occ. eigenvalues --   -0.34434  -0.33428  -0.33151  -0.25170  -0.25168
 Alpha  occ. eigenvalues --   -0.24078  -0.23946
 Alpha virt. eigenvalues --    0.00024   0.00038   0.01104   0.01163   0.08919
 Alpha virt. eigenvalues --    0.10031   0.14161   0.14399   0.15253   0.15537
 Alpha virt. eigenvalues --    0.16240   0.17306   0.18115   0.18129   0.18882

 Mulliken charges:
               1
     1  C   -0.126935
     2  H    0.131754
     3  C   -0.130003
     4  H    0.130659
     5  C   -0.130003
     6  H    0.130659
     7  C   -0.130003
     8  H    0.130659
     9  C   -0.130003
    10  H    0.130659
    11  C   -0.126935
    12  H    0.131754
    13  C   -0.136105
    14  C   -0.133071
    15  H    0.123519
    16  H    0.156587
    17  C   -0.128435
    18  H    0.123799
    19  C   -0.128483
    20  H    0.124115
    21  C   -0.128435
    22  H    0.123799
    23  C   -0.133071
    24  H    0.123519
 Sum of Mulliken charges =   0.00000

 Dipole moment (field-independent basis, Debye):
    X=              0.0000    Y=              0.0000    Z=             -0.4948  Tot=              0.4948
 Quadrupole moment (field-independent basis, Debye-Ang):
   XX=            -69.6537   YY=            -62.9517   ZZ=            -70.3265
   XY=              0.0000   XZ=              0.0000   YZ=              0.0000

 Normal termination of Gaussian 09 at Sun Mar 19 00:45:55 2017.
