 Gaussian 09, Revision D.01,
 Gaussian 09:  EM64L-G09RevD.01 24-Apr-2013

 ------------------------------------------
 #p b3lyp empiricaldispersion=gd3bj cc-pVDZ
 ------------------------------------------

 ---------------------
 benzene dimer 3.00425
 ---------------------
 Symbolic Z-matrix:
 Charge =  0 Multiplicity = 1

                         Standard orientation:
 ---------------------------------------------------------------------
 Center     Atomic      Atomic             Coordinates (Angstroms)
 Number     Number       Type             X           Y           Z
 ---------------------------------------------------------------------
      1          6           0       -1.391500    0.000000   -2.750000
      2          1           0       -2.471500    0.000000   -2.750000
      3          6           0       -0.695750    1.205074   -2.750000
      4          1           0       -1.235750    2.140382   -2.750000
      5          6           0       -0.695750   -1.205074   -2.750000
      6          1           0       -1.235750   -2.140382   -2.750000
      7          6           0        0.695750    1.205074   -2.750000
      8          1           0        1.235750    2.140382   -2.750000
      9          6           0        0.695750   -1.205074   -2.750000
     10          1           0        1.235750   -2.140382   -2.750000
     11          6           0        1.391500    0.000000   -2.750000
     12          1           0        2.471500    0.000000   -2.750000
     13          6           0        0.000000    0.000000    1.358500
     14          6           0        0.000000   -1.205074    2.054250
     15          1           0        0.000000   -2.140382    1.514250
     16          1           0        0.000000    0.000000    0.278500
     17          6           0        0.000000   -1.205074    3.445750
     18          1           0        0.000000   -2.140382    3.985750
     19          6           0        0.000000    0.000000    4.141500
     20          1           0        0.000000    0.000000    5.221500
     21          6           0        0.000000    1.205074    3.445750
     22          1           0        0.000000    2.140382    3.985750
     23          6           0        0.000000    1.205074    2.054250
     24          1           0        0.000000    2.140382    1.514250
 ---------------------------------------------------------------------

 SCF Done:  E(RB3LYP) =  -464.565831478     A.U. after   13 cycles

 The electronic state is 1-A1.
 Alpha  occ. eigenvalues --  -10.19164 -10.19144 -10.19134 -10.19093 -10.19082
 Alpha  occ. eigenvalues --  -10.19064 -10.18373 -10.18342 -10.18307 -10.18246
 Alpha  occ. eigenvalues --  -10.18240 -10.18052  -0.85900  -0.85044  -0.75060
 Alpha  occ. eigenvalues --   -0.75044  -0.74247  -0.74182  -0.60664  -0.60660
 Alpha  occ. eigenvalues --   -0.59858  -0.59815  -0.52698  -0.51878  -0.46465
 Alpha  occ. eigenvalues --   -0.45665  -0.44945  -0.44108  -0.42495  -0.42475
 Alpha  occ. eigenvalues --   -0.41721  -0.41644  -0.37135  -0.36286  -0.34702
 Alpha  occ. eigenvalues --   -0.34690  -0.33919  -0.33759  -0.25747  -0.25745
 Alpha  occ. eigenvalues --   -0.24916  -0.24824
 Alpha virt. eigenvalues --   -0.00827  -0.00822  -0.00002   0.00041   0.05338
 Alpha virt. eigenvalues --    0.06863   0.09107   0.09806   0.10754   0.10857
 Alpha virt. eigenvalues --    0.13291   0.13300   0.14102   0.14248   0.15087

 Mulliken charges:
               1
     1  C    0.036480
     2  H   -0.033886
     3  C    0.034365
     4  H   -0.034578
     5  C    0.034365
     6  H   -0.034578
     7  C    0.034365
     8  H   -0.034578
     9  C    0.034365
    10  H   -0.034578
    11  C    0.036480
    12  H   -0.033886
    13  C    0.042463
    14  C    0.030223
    15  H   -0.040655
    16  H   -0.017100
    17  C    0.036671
    18  H   -0.038913
    19  C    0.034489
    20  H   -0.038843
    21  C    0.036671
    22  H   -0.038913
    23  C    0.030223
    24  H   -0.040655
 Sum of Mulliken charges =   0.00000

 Dipole moment (field-independent basis, Debye):
    X=              0.0000    Y=              0.0000    Z=             -0.3609  Tot=              0.3609
 Quadrupole moment (field-independent basis, Debye-Ang):
   XX=            -70.7513   YY=            -64.1962   ZZ=            -71.3770
   XY=              0.0000   XZ=              0.0000   YZ=              0.0000

 Normal termination of Gaussian 09 at Sun Mar 19 00:48:28 2017.
