 Gaussian 09, Revision D.01,
 Gaussian 09:  EM64L-G09RevD.01 24-Apr-2013

 ----------------------------------------------
 #p b3lyp empiricaldispersion=gd3bj jun-cc-pVTZ
 ----------------------------------------------

 ---------------------
 benzene dimer 2.60425
 ---------------------
 Symbolic Z-matrix:
 Charge =  0 Multiplicity = 1

                         Standard orientation:
 ---------------------------------------------------------------------
 Center     Atomic      Atomic             Coordinates (Angstroms)
 Number     Number       Type             X           Y           Z
 ---------------------------------------------------------------------
      1          6           0       -1.391500    0.000000   -2.550000
      2          1           0       -2.471500    0.000000   -2.550000
      3          6           0       -0.695750    1.205074   -2.550000
      4          1           0       -1.235750    2.140382   -2.550000
      5          6           0       -0.695750   -1.205074   -2.550000
      6          1           0       -1.235750   -2.140382   -2.550000
      7          6           0        0.695750    1.205074   -2.550000
      8          1           0        1.235750    2.140382   -2.550000
      9          6           0        0.695750   -1.205074   -2.550000
     10          1           0        1.235750   -2.140382   -2.550000
     11          6           0        1.391500    0.000000   -2.550000
     12          1           0        2.471500    0.000000   -2.550000
     13          6           0        0.000000    0.000000    1.158500
     14          6           0        0.000000   -1.205074    1.854250
     15          1           0        0.000000   -2.140382    1.314250
     16          1           0        0.000000    0.000000    0.078500
     17          6           0        0.000000   -1.205074    3.245750
     18          1           0        0.000000   -2.140382    3.785750
     19          6           0        0.000000    0.000000    3.941500
     20          1           0        0.000000    0.000000    5.021500
     21          6           0        0.000000    1.205074    3.245750
     22          1           0        0.000000    2.140382    3.785750
     23          6           0        0.000000    1.205074    1.854250
     24          1           0        0.000000    2.140382    1.314250
 ---------------------------------------------------------------------

 SCF Done:  E(RB3LYP) =  -464.711472857     A.U. after   10 cycles

 The electronic state is 1-A1.
 Alpha  occ. eigenvalues --  -10.18452 -10.18429 -10.18420 -10.18370 -10.18360
 Alpha  occ. eigenvalues --  -10.18338 -10.17509 -10.17475 -10.17429 -10.17354
 Alpha  occ. eigenvalues --  -10.17348 -10.17102  -0.86403  -0.85341  -0.75511
 Alpha  occ. eigenvalues --   -0.75487  -0.74511  -0.74432  -0.61150  -0.61145
 Alpha  occ. eigenvalues --   -0.60165  -0.60123  -0.53344  -0.52352  -0.46925
 Alpha  occ. eigenvalues --   -0.45978  -0.45623  -0.44604  -0.43088  -0.43059
 Alpha  occ. eigenvalues --   -0.42159  -0.42136  -0.37791  -0.36806  -0.35330
 Alpha  occ. eigenvalues --   -0.35311  -0.34371  -0.34090  -0.26556  -0.26502
 Alpha  occ. eigenvalues --   -0.25469  -0.25285
 Alpha virt. eigenvalues --   -0.02273  -0.02155  -0.01095  -0.01049  -0.00758
 Alpha virt. eigenvalues --    0.00468   0.00653   0.01210   0.02244   0.02548
 Alpha virt. eigenvalues --    0.03276   0.03331   0.04452   0.04512   0.04764

 Mulliken charges:
               1
     1  C   -0.141715
     2  H    0.122433
     3  C   -0.123407
     4  H    0.121510
     5  C   -0.123407
     6  H    0.121510
     7  C   -0.123407
     8  H    0.121510
     9  C   -0.123407
    10  H    0.121510
    11  C   -0.141715
    12  H    0.122433
    13  C    0.134661
    14  C   -0.181764
    15  H    0.116831
    16  H    0.087728
    17  C   -0.134024
    18  H    0.117519
    19  C   -0.116703
    20  H    0.103342
    21  C   -0.134024
    22  H    0.117519
    23  C   -0.181764
    24  H    0.116831
 Sum of Mulliken charges =   0.00000

 Dipole moment (field-independent basis, Debye):
    X=              0.0000    Y=              0.0000    Z=             -0.4564  Tot=              0.4564
 Quadrupole moment (field-independent basis, Debye-Ang):
   XX=            -72.0071   YY=            -64.9729   ZZ=            -72.9648
   XY=              0.0000   XZ=              0.0000   YZ=              0.0000

 Normal termination of Gaussian 09 at Sun Mar 19 00:54:34 2017.
