 Gaussian 09, Revision D.01,
 Gaussian 09:  EM64L-G09RevD.01 24-Apr-2013

 ------------------------------------------
 #p b3lyp empiricaldispersion=gd3bj cc-pVDZ
 ------------------------------------------

 ---------------------
 benzene dimer 2.10425
 ---------------------
 Symbolic Z-matrix:
 Charge =  0 Multiplicity = 1

                         Standard orientation:
 ---------------------------------------------------------------------
 Center     Atomic      Atomic             Coordinates (Angstroms)
 Number     Number       Type             X           Y           Z
 ---------------------------------------------------------------------
      1          6           0       -1.391500    0.000000   -2.300000
      2          1           0       -2.471500    0.000000   -2.300000
      3          6           0       -0.695750    1.205074   -2.300000
      4          1           0       -1.235750    2.140382   -2.300000
      5          6           0       -0.695750   -1.205074   -2.300000
      6          1           0       -1.235750   -2.140382   -2.300000
      7          6           0        0.695750    1.205074   -2.300000
      8          1           0        1.235750    2.140382   -2.300000
      9          6           0        0.695750   -1.205074   -2.300000
     10          1           0        1.235750   -2.140382   -2.300000
     11          6           0        1.391500    0.000000   -2.300000
     12          1           0        2.471500    0.000000   -2.300000
     13          6           0        0.000000    0.000000    0.908500
     14          6           0        0.000000   -1.205074    1.604250
     15          1           0        0.000000   -2.140382    1.064250
     16          1           0        0.000000    0.000000   -0.171500
     17          6           0        0.000000   -1.205074    2.995750
     18          1           0        0.000000   -2.140382    3.535750
     19          6           0        0.000000    0.000000    3.691500
     20          1           0        0.000000    0.000000    4.771500
     21          6           0        0.000000    1.205074    2.995750
     22          1           0        0.000000    2.140382    3.535750
     23          6           0        0.000000    1.205074    1.604250
     24          1           0        0.000000    2.140382    1.064250
 ---------------------------------------------------------------------

 SCF Done:  E(RB3LYP) =  -464.565817320     A.U. after   13 cycles

 The electronic state is 1-A1.
 Alpha  occ. eigenvalues --  -10.19471 -10.19450 -10.19436 -10.19398 -10.19382
 Alpha  occ. eigenvalues --  -10.19366 -10.18005 -10.17980 -10.17934 -10.17780
 Alpha  occ. eigenvalues --  -10.17778 -10.17265  -0.86353  -0.84610  -0.75413
 Alpha  occ. eigenvalues --   -0.75378  -0.73854  -0.73732  -0.60956  -0.60952
 Alpha  occ. eigenvalues --   -0.59457  -0.59416  -0.53036  -0.51536  -0.46708
 Alpha  occ. eigenvalues --   -0.45389  -0.45253  -0.43679  -0.42809  -0.42770
 Alpha  occ. eigenvalues --   -0.41777  -0.41354  -0.37052  -0.35901  -0.34985
 Alpha  occ. eigenvalues --   -0.34963  -0.33525  -0.32769  -0.26358  -0.26182
 Alpha  occ. eigenvalues --   -0.24553  -0.24172
 Alpha virt. eigenvalues --   -0.01312  -0.01216   0.00479   0.00490   0.05107
 Alpha virt. eigenvalues --    0.07451   0.08424   0.09677   0.11291   0.11639
 Alpha virt. eigenvalues --    0.13154   0.13628   0.14717   0.15026   0.15186

 Mulliken charges:
               1
     1  C    0.037089
     2  H   -0.032247
     3  C    0.033234
     4  H   -0.032981
     5  C    0.033234
     6  H   -0.032981
     7  C    0.033234
     8  H   -0.032981
     9  C    0.033234
    10  H   -0.032981
    11  C    0.037089
    12  H   -0.032247
    13  C    0.095330
    14  C    0.015429
    15  H   -0.052525
    16  H   -0.019041
    17  C    0.039779
    18  H   -0.041524
    19  C    0.031825
    20  H   -0.041129
    21  C    0.039779
    22  H   -0.041524
    23  C    0.015429
    24  H   -0.052525
 Sum of Mulliken charges =   0.00000

 Dipole moment (field-independent basis, Debye):
    X=              0.0000    Y=              0.0000    Z=             -0.7101  Tot=              0.7101
 Quadrupole moment (field-independent basis, Debye-Ang):
   XX=            -70.5217   YY=            -64.4136   ZZ=            -71.7547
   XY=              0.0000   XZ=              0.0000   YZ=              0.0000

 Normal termination of Gaussian 09 at Sun Mar 19 00:44:00 2017.
