 Gaussian 09, Revision D.01,
 Gaussian 09:  EM64L-G09RevD.01 24-Apr-2013

 -----------------------------------------
 #p b3lyp empiricaldispersion=gd3bj 6-31g*
 -----------------------------------------

 ---------------------
 benzene dimer 1.90425
 ---------------------
 Symbolic Z-matrix:
 Charge =  0 Multiplicity = 1

                         Standard orientation:
 ---------------------------------------------------------------------
 Center     Atomic      Atomic             Coordinates (Angstroms)
 Number     Number       Type             X           Y           Z
 ---------------------------------------------------------------------
      1          6           0       -1.391500    0.000000   -2.200000
      2          1           0       -2.471500    0.000000   -2.200000
      3          6           0       -0.695750    1.205074   -2.200000
      4          1           0       -1.235750    2.140382   -2.200000
      5          6           0       -0.695750   -1.205074   -2.200000
      6          1           0       -1.235750   -2.140382   -2.200000
      7          6           0        0.695750    1.205074   -2.200000
      8          1           0        1.235750    2.140382   -2.200000
      9          6           0        0.695750   -1.205074   -2.200000
     10          1           0        1.235750   -2.140382   -2.200000
     11          6           0        1.391500    0.000000   -2.200000
     12          1           0        2.471500    0.000000   -2.200000
     13          6           0        0.000000    0.000000    0.808500
     14          6           0        0.000000   -1.205074    1.504250
     15          1           0        0.000000   -2.140382    0.964250
     16          1           0        0.000000    0.000000   -0.271500
     17          6           0        0.000000   -1.205074    2.895750
     18          1           0        0.000000   -2.140382    3.435750
     19          6           0        0.000000    0.000000    3.591500
     20          1           0        0.000000    0.000000    4.671500
     21          6           0        0.000000    1.205074    2.895750
     22          1           0        0.000000    2.140382    3.435750
     23          6           0        0.000000    1.205074    1.504250
     24          1           0        0.000000    2.140382    0.964250
 ---------------------------------------------------------------------

 SCF Done:  E(RB3LYP) =  -464.534893517     A.U. after   13 cycles

 The electronic state is 1-A1.
 Alpha  occ. eigenvalues --  -10.19294 -10.19270 -10.19260 -10.19212 -10.19201
 Alpha  occ. eigenvalues --  -10.19178 -10.17490 -10.17462 -10.17405 -10.17200
 Alpha  occ. eigenvalues --  -10.17198 -10.16423  -0.85939  -0.83665  -0.75007
 Alpha  occ. eigenvalues --   -0.74960  -0.73024  -0.72867  -0.60631  -0.60628
 Alpha  occ. eigenvalues --   -0.58742  -0.58712  -0.52944  -0.51028  -0.46652
 Alpha  occ. eigenvalues --   -0.45038  -0.44715  -0.42729  -0.42625  -0.42586
 Alpha  occ. eigenvalues --   -0.41471  -0.40782  -0.36264  -0.34979  -0.34788
 Alpha  occ. eigenvalues --   -0.34762  -0.32934  -0.31747  -0.25928  -0.25686
 Alpha  occ. eigenvalues --   -0.23626  -0.23121
 Alpha virt. eigenvalues --   -0.00557  -0.00438   0.01698   0.01741   0.08434
 Alpha virt. eigenvalues --    0.10921   0.13384   0.14184   0.15802   0.15923
 Alpha virt. eigenvalues --    0.16393   0.17859   0.17892   0.18382   0.18901

 Mulliken charges:
               1
     1  C   -0.123641
     2  H    0.135218
     3  C   -0.129942
     4  H    0.133788
     5  C   -0.129942
     6  H    0.133788
     7  C   -0.129942
     8  H    0.133788
     9  C   -0.129942
    10  H    0.133788
    11  C   -0.123641
    12  H    0.135218
    13  C   -0.073017
    14  C   -0.145453
    15  H    0.113877
    16  H    0.125715
    17  C   -0.130559
    18  H    0.120436
    19  C   -0.128821
    20  H    0.120982
    21  C   -0.130559
    22  H    0.120436
    23  C   -0.145453
    24  H    0.113877
 Sum of Mulliken charges =   0.00000

 Dipole moment (field-independent basis, Debye):
    X=              0.0000    Y=              0.0000    Z=             -0.9382  Tot=              0.9382
 Quadrupole moment (field-independent basis, Debye-Ang):
   XX=            -69.3528   YY=            -63.1707   ZZ=            -70.7354
   XY=              0.0000   XZ=              0.0000   YZ=              0.0000

 Normal termination of Gaussian 09 at Sun Mar 19 00:39:32 2017.
