 Gaussian 09, Revision D.01,
 Gaussian 09:  EM64L-G09RevD.01 24-Apr-2013

 ------------------------------------------
 #p b3lyp empiricaldispersion=gd3bj cc-pVQZ
 ------------------------------------------

 ----------------------------
 benzene dimer 2.495750000000
 ----------------------------
 Symbolic Z-matrix:
 Charge =  0 Multiplicity = 1

                         Standard orientation:
 ---------------------------------------------------------------------
 Center     Atomic      Atomic             Coordinates (Angstroms)
 Number     Number       Type             X           Y           Z
 ---------------------------------------------------------------------
      1          6           0       -1.391500    0.000000   -2.495750
      2          1           0       -2.471500    0.000000   -2.495750
      3          6           0       -0.695750    1.205074   -2.495750
      4          1           0       -1.235750    2.140382   -2.495750
      5          6           0       -0.695750   -1.205074   -2.495750
      6          1           0       -1.235750   -2.140382   -2.495750
      7          6           0        0.695750    1.205074   -2.495750
      8          1           0        1.235750    2.140382   -2.495750
      9          6           0        0.695750   -1.205074   -2.495750
     10          1           0        1.235750   -2.140382   -2.495750
     11          6           0        1.391500    0.000000   -2.495750
     12          1           0        2.471500    0.000000   -2.495750
     13          6           0        0.000000    0.000000    1.104250
     14          6           0        0.000000   -1.205074    1.800000
     15          1           0        0.000000   -2.140382    1.260000
     16          1           0        0.000000    0.000000    0.024250
     17          6           0        0.000000   -1.205074    3.191500
     18          1           0        0.000000   -2.140382    3.731500
     19          6           0        0.000000    0.000000    3.887250
     20          1           0        0.000000    0.000000    4.967250
     21          6           0        0.000000    1.205074    3.191500
     22          1           0        0.000000    2.140382    3.731500
     23          6           0        0.000000    1.205074    1.800000
     24          1           0        0.000000    2.140382    1.260000
 ---------------------------------------------------------------------

 SCF Done:  E(RB3LYP) =  -464.742717371     A.U. after   15 cycles

 The electronic state is 1-A1.
 Alpha  occ. eigenvalues --  -10.18110 -10.18086 -10.18076 -10.18025 -10.18014
 Alpha  occ. eigenvalues --  -10.17990 -10.17056 -10.17022 -10.16974 -10.16889
 Alpha  occ. eigenvalues --  -10.16883 -10.16598  -0.86331  -0.85142  -0.75442
 Alpha  occ. eigenvalues --   -0.75417  -0.74331  -0.74242  -0.61101  -0.61096
 Alpha  occ. eigenvalues --   -0.60010  -0.59965  -0.53330  -0.52233  -0.46904
 Alpha  occ. eigenvalues --   -0.45868  -0.45586  -0.44454  -0.43066  -0.43036
 Alpha  occ. eigenvalues --   -0.42080  -0.42011  -0.37723  -0.36671  -0.35311
 Alpha  occ. eigenvalues --   -0.35291  -0.34248  -0.33901  -0.26555  -0.26484
 Alpha  occ. eigenvalues --   -0.25333  -0.25119
 Alpha virt. eigenvalues --   -0.02069  -0.01977  -0.00777  -0.00754   0.01861
 Alpha virt. eigenvalues --    0.03804   0.04045   0.05184   0.06440   0.06696
 Alpha virt. eigenvalues --    0.07907   0.08263   0.09731   0.09986   0.10873

 Mulliken charges:
               1
     1  C   -0.107770
     2  H    0.113722
     3  C   -0.119914
     4  H    0.117804
     5  C   -0.119914
     6  H    0.117804
     7  C   -0.119914
     8  H    0.117804
     9  C   -0.119914
    10  H    0.117804
    11  C   -0.107770
    12  H    0.113722
    13  C   -0.081888
    14  C   -0.136120
    15  H    0.111984
    16  H    0.131517
    17  C   -0.118020
    18  H    0.113264
    19  C   -0.108971
    20  H    0.113659
    21  C   -0.118020
    22  H    0.113264
    23  C   -0.136120
    24  H    0.111984
 Sum of Mulliken charges =   0.00000

 Dipole moment (field-independent basis, Debye):
    X=              0.0000    Y=              0.0000    Z=             -0.5006  Tot=              0.5006
 Quadrupole moment (field-independent basis, Debye-Ang):
   XX=            -71.6346   YY=            -64.6861   ZZ=            -72.5879
   XY=              0.0000   XZ=              0.0000   YZ=              0.0000

 Normal termination of Gaussian 09 at Sun Mar 19 01:48:58 2017.
