 Gaussian 09, Revision D.01,
 Gaussian 09:  EM64L-G09RevD.01 24-Apr-2013

 ------------------------------------------
 #p b3lyp empiricaldispersion=gd3bj cc-pVTZ
 ------------------------------------------

 ---------------------
 benzene dimer 2.90425
 ---------------------
 Symbolic Z-matrix:
 Charge =  0 Multiplicity = 1

                         Standard orientation:
 ---------------------------------------------------------------------
 Center     Atomic      Atomic             Coordinates (Angstroms)
 Number     Number       Type             X           Y           Z
 ---------------------------------------------------------------------
      1          6           0       -1.391500    0.000000   -2.700000
      2          1           0       -2.471500    0.000000   -2.700000
      3          6           0       -0.695750    1.205074   -2.700000
      4          1           0       -1.235750    2.140382   -2.700000
      5          6           0       -0.695750   -1.205074   -2.700000
      6          1           0       -1.235750   -2.140382   -2.700000
      7          6           0        0.695750    1.205074   -2.700000
      8          1           0        1.235750    2.140382   -2.700000
      9          6           0        0.695750   -1.205074   -2.700000
     10          1           0        1.235750   -2.140382   -2.700000
     11          6           0        1.391500    0.000000   -2.700000
     12          1           0        2.471500    0.000000   -2.700000
     13          6           0        0.000000    0.000000    1.308500
     14          6           0        0.000000   -1.205074    2.004250
     15          1           0        0.000000   -2.140382    1.464250
     16          1           0        0.000000    0.000000    0.228500
     17          6           0        0.000000   -1.205074    3.395750
     18          1           0        0.000000   -2.140382    3.935750
     19          6           0        0.000000    0.000000    4.091500
     20          1           0        0.000000    0.000000    5.171500
     21          6           0        0.000000    1.205074    3.395750
     22          1           0        0.000000    2.140382    3.935750
     23          6           0        0.000000    1.205074    2.004250
     24          1           0        0.000000    2.140382    1.464250
 ---------------------------------------------------------------------

 SCF Done:  E(RB3LYP) =  -464.708508717     A.U. after   12 cycles

 The electronic state is 1-A1.
 Alpha  occ. eigenvalues --  -10.18194 -10.18172 -10.18163 -10.18113 -10.18102
 Alpha  occ. eigenvalues --  -10.18081 -10.17360 -10.17325 -10.17283 -10.17224
 Alpha  occ. eigenvalues --  -10.17217 -10.17030  -0.86121  -0.85209  -0.75259
 Alpha  occ. eigenvalues --   -0.75240  -0.74391  -0.74324  -0.60925  -0.60921
 Alpha  occ. eigenvalues --   -0.60067  -0.60026  -0.53122  -0.52252  -0.46739
 Alpha  occ. eigenvalues --   -0.45895  -0.45379  -0.44491  -0.42863  -0.42840
 Alpha  occ. eigenvalues --   -0.42034  -0.41977  -0.37580  -0.36683  -0.35114
 Alpha  occ. eigenvalues --   -0.35099  -0.34279  -0.34103  -0.26231  -0.26220
 Alpha  occ. eigenvalues --   -0.25330  -0.25217
 Alpha virt. eigenvalues --   -0.01622  -0.01599  -0.00695  -0.00683   0.03197
 Alpha virt. eigenvalues --    0.04929   0.05930   0.06949   0.08004   0.08150
 Alpha virt. eigenvalues --    0.10008   0.10063   0.10953   0.11100   0.12621

 Mulliken charges:
               1
     1  C   -0.103290
     2  H    0.107116
     3  C   -0.109260
     4  H    0.107752
     5  C   -0.109260
     6  H    0.107752
     7  C   -0.109260
     8  H    0.107752
     9  C   -0.109260
    10  H    0.107752
    11  C   -0.103290
    12  H    0.107116
    13  C   -0.081739
    14  C   -0.129470
    15  H    0.103980
    16  H    0.136073
    17  C   -0.101218
    18  H    0.103403
    19  C   -0.112974
    20  H    0.103632
    21  C   -0.101218
    22  H    0.103403
    23  C   -0.129470
    24  H    0.103980
 Sum of Mulliken charges =   0.00000

 Dipole moment (field-independent basis, Debye):
    X=              0.0000    Y=              0.0000    Z=             -0.3682  Tot=              0.3682
 Quadrupole moment (field-independent basis, Debye-Ang):
   XX=            -71.4806   YY=            -64.3860   ZZ=            -72.2242
   XY=              0.0000   XZ=              0.0000   YZ=              0.0000

 Normal termination of Gaussian 09 at Sun Mar 19 00:25:41 2017.
