 Gaussian 09, Revision D.01,
 Gaussian 09:  EM64L-G09RevD.01 24-Apr-2013

 ----------------------------------------------
 #p b3lyp empiricaldispersion=gd3bj jun-cc-pVTZ
 ----------------------------------------------

 ---------------------
 benzene dimer 2.90425
 ---------------------
 Symbolic Z-matrix:
 Charge =  0 Multiplicity = 1

                         Standard orientation:
 ---------------------------------------------------------------------
 Center     Atomic      Atomic             Coordinates (Angstroms)
 Number     Number       Type             X           Y           Z
 ---------------------------------------------------------------------
      1          6           0       -1.391500    0.000000   -2.700000
      2          1           0       -2.471500    0.000000   -2.700000
      3          6           0       -0.695750    1.205074   -2.700000
      4          1           0       -1.235750    2.140382   -2.700000
      5          6           0       -0.695750   -1.205074   -2.700000
      6          1           0       -1.235750   -2.140382   -2.700000
      7          6           0        0.695750    1.205074   -2.700000
      8          1           0        1.235750    2.140382   -2.700000
      9          6           0        0.695750   -1.205074   -2.700000
     10          1           0        1.235750   -2.140382   -2.700000
     11          6           0        1.391500    0.000000   -2.700000
     12          1           0        2.471500    0.000000   -2.700000
     13          6           0        0.000000    0.000000    1.308500
     14          6           0        0.000000   -1.205074    2.004250
     15          1           0        0.000000   -2.140382    1.464250
     16          1           0        0.000000    0.000000    0.228500
     17          6           0        0.000000   -1.205074    3.395750
     18          1           0        0.000000   -2.140382    3.935750
     19          6           0        0.000000    0.000000    4.091500
     20          1           0        0.000000    0.000000    5.171500
     21          6           0        0.000000    1.205074    3.395750
     22          1           0        0.000000    2.140382    3.935750
     23          6           0        0.000000    1.205074    2.004250
     24          1           0        0.000000    2.140382    1.464250
 ---------------------------------------------------------------------

 SCF Done:  E(RB3LYP) =  -464.710704176     A.U. after   10 cycles

 The electronic state is 1-A1.
 Alpha  occ. eigenvalues --  -10.18389 -10.18366 -10.18358 -10.18306 -10.18298
 Alpha  occ. eigenvalues --  -10.18275 -10.17605 -10.17571 -10.17528 -10.17473
 Alpha  occ. eigenvalues --  -10.17465 -10.17286  -0.86316  -0.85453  -0.75436
 Alpha  occ. eigenvalues --   -0.75418  -0.74613  -0.74550  -0.61086  -0.61082
 Alpha  occ. eigenvalues --   -0.60270  -0.60233  -0.53276  -0.52450  -0.46870
 Alpha  occ. eigenvalues --   -0.46066  -0.45557  -0.44716  -0.43020  -0.42997
 Alpha  occ. eigenvalues --   -0.42232  -0.42182  -0.37763  -0.36909  -0.35268
 Alpha  occ. eigenvalues --   -0.35252  -0.34473  -0.34305  -0.26425  -0.26408
 Alpha  occ. eigenvalues --   -0.25564  -0.25446
 Alpha virt. eigenvalues --   -0.02159  -0.02080  -0.01215  -0.01188  -0.00757
 Alpha virt. eigenvalues --    0.00426   0.00667   0.01213   0.02174   0.02479
 Alpha virt. eigenvalues --    0.03324   0.03349   0.04438   0.04475   0.04611

 Mulliken charges:
               1
     1  C   -0.140031
     2  H    0.120205
     3  C   -0.118186
     4  H    0.118773
     5  C   -0.118186
     6  H    0.118773
     7  C   -0.118186
     8  H    0.118773
     9  C   -0.118186
    10  H    0.118773
    11  C   -0.140031
    12  H    0.120205
    13  C    0.042787
    14  C   -0.156503
    15  H    0.115705
    16  H    0.108417
    17  C   -0.129937
    18  H    0.116973
    19  C   -0.113520
    20  H    0.107143
    21  C   -0.129937
    22  H    0.116973
    23  C   -0.156503
    24  H    0.115705
 Sum of Mulliken charges =   0.00000

 Dipole moment (field-independent basis, Debye):
    X=              0.0000    Y=              0.0000    Z=             -0.3667  Tot=              0.3667
 Quadrupole moment (field-independent basis, Debye-Ang):
   XX=            -72.0836   YY=            -64.9461   ZZ=            -72.8592
   XY=              0.0000   XZ=              0.0000   YZ=              0.0000

 1\1\GINC-HOLY2A14108\SP\RB3LYP\Jun-CC-pVTZ\C12H12\ROOT\19-Mar-2017\0\\
 #p b3lyp empiricaldispersion=gd3bj jun-cc-pVTZ\\benzene dimer 2.90425\
 \0,1\C,0,1.3915,0.,2.90425\H,0,2.4715,0.,2.90425\C,0,0.69575,1.2050743
 494,2.90425\H,0,1.23575,2.1403817855,2.90425\C,0,0.69575,-1.2050743494
 ,2.90425\H,0,1.23575,-2.1403817855,2.90425\C,0,-0.69575,1.2050743494,2
 .90425\H,0,-1.23575,2.1403817855,2.90425\C,0,-0.69575,-1.2050743494,2.
 90425\H,0,-1.23575,-2.1403817855,2.90425\C,0,-1.3915,0.,2.90425\H,0,-2
 .4715,0.,2.90425\C,0,0.,0.,-1.10425\C,0,0.,-1.2050743494,-1.8\H,0,0.,-

 Normal termination of Gaussian 09 at Sun Mar 19 01:00:01 2017.
