 Gaussian 09, Revision D.01,
 Gaussian 09:  EM64L-G09RevD.01 24-Apr-2013

 ------------------------------------------
 #p b3lyp empiricaldispersion=gd3bj cc-pVQZ
 ------------------------------------------

 ---------------------
 benzene dimer 2.30425
 ---------------------
 Symbolic Z-matrix:
 Charge =  0 Multiplicity = 1

                         Standard orientation:
 ---------------------------------------------------------------------
 Center     Atomic      Atomic             Coordinates (Angstroms)
 Number     Number       Type             X           Y           Z
 ---------------------------------------------------------------------
      1          6           0       -1.391500    0.000000   -2.400000
      2          1           0       -2.471500    0.000000   -2.400000
      3          6           0       -0.695750    1.205074   -2.400000
      4          1           0       -1.235750    2.140382   -2.400000
      5          6           0       -0.695750   -1.205074   -2.400000
      6          1           0       -1.235750   -2.140382   -2.400000
      7          6           0        0.695750    1.205074   -2.400000
      8          1           0        1.235750    2.140382   -2.400000
      9          6           0        0.695750   -1.205074   -2.400000
     10          1           0        1.235750   -2.140382   -2.400000
     11          6           0        1.391500    0.000000   -2.400000
     12          1           0        2.471500    0.000000   -2.400000
     13          6           0        0.000000    0.000000    1.008500
     14          6           0        0.000000   -1.205074    1.704250
     15          1           0        0.000000   -2.140382    1.164250
     16          1           0        0.000000    0.000000   -0.071500
     17          6           0        0.000000   -1.205074    3.095750
     18          1           0        0.000000   -2.140382    3.635750
     19          6           0        0.000000    0.000000    3.791500
     20          1           0        0.000000    0.000000    4.871500
     21          6           0        0.000000    1.205074    3.095750
     22          1           0        0.000000    2.140382    3.635750
     23          6           0        0.000000    1.205074    1.704250
     24          1           0        0.000000    2.140382    1.164250
 ---------------------------------------------------------------------

 SCF Done:  E(RB3LYP) =  -464.742417207     A.U. after   14 cycles

 The electronic state is 1-A1.
 Alpha  occ. eigenvalues --  -10.18166 -10.18142 -10.18131 -10.18081 -10.18069
 Alpha  occ. eigenvalues --  -10.18045 -10.16971 -10.16939 -10.16887 -10.16782
 Alpha  occ. eigenvalues --  -10.16778 -10.16415  -0.86425  -0.85041  -0.75514
 Alpha  occ. eigenvalues --   -0.75484  -0.74240  -0.74139  -0.61159  -0.61155
 Alpha  occ. eigenvalues --   -0.59918  -0.59875  -0.53401  -0.52158  -0.46954
 Alpha  occ. eigenvalues --   -0.45811  -0.45646  -0.44356  -0.43131  -0.43096
 Alpha  occ. eigenvalues --   -0.42134  -0.41928  -0.37677  -0.36583  -0.35368
 Alpha  occ. eigenvalues --   -0.35346  -0.34159  -0.33659  -0.26696  -0.26574
 Alpha  occ. eigenvalues --   -0.25251  -0.24958
 Alpha virt. eigenvalues --   -0.02185  -0.02053  -0.00665  -0.00628   0.01845
 Alpha virt. eigenvalues --    0.03887   0.04002   0.05152   0.06520   0.06752
 Alpha virt. eigenvalues --    0.07879   0.08352   0.10042   0.10393   0.10840

 Mulliken charges:
               1
     1  C   -0.105415
     2  H    0.113487
     3  C   -0.121989
     4  H    0.118512
     5  C   -0.121989
     6  H    0.118512
     7  C   -0.121989
     8  H    0.118512
     9  C   -0.121989
    10  H    0.118512
    11  C   -0.105415
    12  H    0.113487
    13  C   -0.099184
    14  C   -0.135170
    15  H    0.109945
    16  H    0.151688
    17  C   -0.116308
    18  H    0.112679
    19  C   -0.110275
    20  H    0.113242
    21  C   -0.116308
    22  H    0.112679
    23  C   -0.135170
    24  H    0.109945
 Sum of Mulliken charges =   0.00000

 Dipole moment (field-independent basis, Debye):
    X=              0.0000    Y=              0.0000    Z=             -0.5758  Tot=              0.5758
 Quadrupole moment (field-independent basis, Debye-Ang):
   XX=            -71.5673   YY=            -64.7226   ZZ=            -72.7146
   XY=              0.0000   XZ=              0.0000   YZ=              0.0000

 Normal termination of Gaussian 09 at Sun Mar 19 02:00:59 2017.
