 Gaussian 09, Revision D.01,
 Gaussian 09:  EM64L-G09RevD.01 24-Apr-2013

 --------------------------------------------------------------
 #p am1 IRC=(reverse,calcfc,maxpoints=500,stepsize=1,recalc=10)
 --------------------------------------------------------------

 -------------------------
 Cl- + CH3Cl IRC (reverse)
 -------------------------
 Symbolic Z-matrix:
 Charge = -1 Multiplicity = 1

 SCF Done:  E(RAM1) = -0.894693725056E-01 A.U. after   12 cycles
 SCF Done:  E(RAM1) = -0.894743201254E-01 A.U. after    9 cycles
 SCF Done:  E(RAM1) = -0.894898154714E-01 A.U. after    8 cycles
 SCF Done:  E(RAM1) = -0.895157239818E-01 A.U. after    9 cycles
 SCF Done:  E(RAM1) = -0.895520745992E-01 A.U. after    8 cycles
 SCF Done:  E(RAM1) = -0.895988052393E-01 A.U. after    8 cycles
 SCF Done:  E(RAM1) = -0.896558349739E-01 A.U. after    8 cycles
 SCF Done:  E(RAM1) = -0.897230646196E-01 A.U. after    8 cycles
 SCF Done:  E(RAM1) = -0.898003768715E-01 A.U. after    8 cycles
 SCF Done:  E(RAM1) = -0.898876365439E-01 A.U. after    8 cycles
 SCF Done:  E(RAM1) = -0.103802010358     A.U. after    7 cycles
 SCF Done:  E(RAM1) = -0.103815260104     A.U. after    7 cycles
 SCF Done:  E(RAM1) = -0.103827471897     A.U. after    7 cycles
 SCF Done:  E(RAM1) = -0.103838661431     A.U. after    7 cycles
 SCF Done:  E(RAM1) = -0.103848844357     A.U. after    7 cycles
 SCF Done:  E(RAM1) = -0.103858036280     A.U. after    7 cycles
 SCF Done:  E(RAM1) = -0.103866252761     A.U. after    7 cycles
 SCF Done:  E(RAM1) = -0.103873509313     A.U. after    7 cycles
 SCF Done:  E(RAM1) = -0.103879821392     A.U. after    7 cycles
 SCF Done:  E(RAM1) = -0.103885204418     A.U. after    7 cycles

                          Input orientation:
 ---------------------------------------------------------------------
 Center     Atomic      Atomic             Coordinates (Angstroms)
 Number     Number       Type             X           Y           Z
 ---------------------------------------------------------------------
      1          6           0        0.449252    0.000000    0.000000
      2          1           0        0.115468   -0.725337   -0.769988
      3          1           0        0.115468   -0.304160    1.013156
      4          1           0        0.115468    1.029499   -0.243166
      5         17           0        2.234556    0.000000    0.000000
      6         17           0       -2.398704    0.000000    0.000000
 ---------------------------------------------------------------------

 Alpha  occ. eigenvalues --   -1.21691  -0.94339  -0.89634  -0.39733  -0.39733
 Alpha  occ. eigenvalues --   -0.38942  -0.27984  -0.27984  -0.13026  -0.13026
 Alpha  occ. eigenvalues --   -0.12744
 Alpha virt. eigenvalues --    0.20007   0.30914   0.30914   0.32704

 Mulliken charges:
               1
     1  C   -0.099736
     2  H    0.116707
     3  H    0.116707
     4  H    0.116707
     5  Cl  -0.272446
     6  Cl  -0.977940
 Sum of Mulliken charges =  -1.00000

 Dipole moment (field-independent basis, Debye):
    X=              8.3230    Y=              0.0000    Z=              0.0000  Tot=              8.3230
 N-N= 6.456407135933D+01 E-N=-1.061538660194D+02  KE=-1.280532901246D+01
  Exact polarizability:   0.000   0.000   0.000   0.000   0.000   0.000
 Approx polarizability:  22.353   0.000   4.681   0.000   0.000   4.681
 Leave Link  601 at Wed Mar 15 20:10:24 2017, MaxMem=   134217728 cpu:         0.1
 (Enter /n/sw/g09_D.01/g09/l9999.exe)

 This type of calculation cannot be archived.

 OLD AGE AND TREACHERY WILL ALWAYS PREVAIL OVER YOUTH AND SKILL.

 Normal termination of Gaussian 09 at Wed Mar 15 20:10:24 2017.
