 Gaussian 09, Revision D.01,
 Gaussian 09:  EM64L-G09RevD.01 24-Apr-2013

 -----------------------
 #p opt freq=noraman am1
 -----------------------

 -------------------
 Title Card Required
 -------------------
 Symbolic Z-matrix:
 Charge = -1 Multiplicity = 1

 SCF Done:  E(RAM1) = -0.308664267454E-01 A.U. after   11 cycles
 SCF Done:  E(RAM1) = -0.725491864241E-01 A.U. after    9 cycles
 SCF Done:  E(RAM1) = -0.948857711049E-01 A.U. after   10 cycles
 SCF Done:  E(RAM1) = -0.100882875433     A.U. after   10 cycles
 SCF Done:  E(RAM1) = -0.103660047123     A.U. after   10 cycles
 SCF Done:  E(RAM1) = -0.103852622355     A.U. after    9 cycles
 SCF Done:  E(RAM1) = -0.103889594620     A.U. after    8 cycles
 SCF Done:  E(RAM1) = -0.103896678323     A.U. after    7 cycles
 Optimization completed.
    -- Stationary point found.
 Normal termination of Gaussian 09 at Fri Mar  3 14:33:34 2017.

 -------------------------------------------------------------
 #P Geom=AllCheck Guess=TCheck SCRF=Check GenChk RAM1/ZDO Freq
 -------------------------------------------------------------

 Structure from the checkpoint file:  "/scratch/Gau-27554.chk"
 -------------------
 Title Card Required
 -------------------
 Charge = -1 Multiplicity = 1

                         Standard orientation:
 ---------------------------------------------------------------------
 Center     Atomic      Atomic             Coordinates (Angstroms)
 Number     Number       Type             X           Y           Z
 ---------------------------------------------------------------------
      1          6           0       -0.095953   -0.174181    0.402622
      2          1           0        0.963622    0.153290    0.424840
      3          1           0       -0.780577    0.682978    0.238303
      4          1           0       -0.257103   -0.970711   -0.352364
      5         17           0        0.515890    0.936472   -2.164642
      6         17           0       -0.477668   -0.867087    2.004258
 ---------------------------------------------------------------------

 SCF Done:  E(RAM1) = -0.103896678323     A.U. after    2 cycles

 The electronic state is 1-A.
 Alpha  occ. eigenvalues --   -1.21749  -0.94282  -0.89703  -0.39796  -0.39796
 Alpha  occ. eigenvalues --   -0.38984  -0.28057  -0.28057  -0.12990  -0.12990
 Alpha  occ. eigenvalues --   -0.12731
 Alpha virt. eigenvalues --    0.19911   0.30836   0.30836   0.32615

 Mulliken charges:
               1
     1  C   -0.099905
     2  H    0.116755
     3  H    0.116756
     4  H    0.116756
     5  Cl  -0.978936
     6  Cl  -0.271426
 Sum of Mulliken charges =  -1.00000

 Dipole moment (field-independent basis, Debye):
    X=             -1.7990    Y=             -3.2657    Z=              7.5487  Tot=              8.4193
 N-N= 6.449976813182D+01 E-N=-1.060212428789D+02  KE=-1.280339598017D+01
  Exact polarizability:   9.605   2.208  12.397  -5.105  -9.266  29.807
 Approx polarizability:   5.479   1.447   7.308  -3.344  -6.070  18.712
 Leave Link  601 at Fri Mar  3 14:33:34 2017, MaxMem=    33554432 cpu:         0.0
 (Enter /n/sw/g09_D.01/g09/l701.exe)
 Compute integral second derivatives.
 ... and contract with generalized density number  0.
 Leave Link  701 at Fri Mar  3 14:33:34 2017, MaxMem=    33554432 cpu:         0.1
 (Enter /n/sw/g09_D.01/g09/l702.exe)
 L702 exits ... SP integral derivatives will be done elsewhere.

                      1                      2                      3
                      A                      A                      A
 Frequencies --     86.6198                86.6207               132.4784
 Red. masses --      3.2349                 3.2349                18.3697
 Frc consts  --      0.0143                 0.0143                 0.1900
 IR Inten    --      9.0840                 9.0839                47.9281

                      4                      5                      6
                      A                      A                      A
 Frequencies --    709.6670               941.0780               941.0781
 Red. masses --      9.3792                 1.1474                 1.1474
 Frc consts  --      2.7831                 0.5987                 0.5987
 IR Inten    --    241.0114                 6.3909                 6.3909

                      7                      8                      9
                      A                      A                      A
 Frequencies --   1300.6584              1361.7155              1361.7161
 Red. masses --      1.0943                 1.0837                 1.0837
 Frc consts  --      1.0907                 1.1840                 1.1840
 IR Inten    --     12.0484                12.2947                12.2949

                     10                     11                     12
                      A                      A                      A
 Frequencies --   3093.7836              3093.7857              3163.5155
 Red. masses --      1.0990                 1.0990                 1.0209
 Frc consts  --      6.1978                 6.1978                 6.0198
 IR Inten    --     12.8853                12.8850                 2.4075

 - Thermochemistry -
 -------------------
 Temperature   298.150 Kelvin.  Pressure   1.00000 Atm.
 Atom     1 has atomic number  6 and mass  12.00000

 Molecular mass:    84.96118 amu.
 Principal axes and moments of inertia in atomic units:
                           1         2         3
     Eigenvalues --    12.084021366.705851366.70585
           X           -0.21368   0.00005   0.97690
           Y           -0.38789   0.91779  -0.08489
           Z            0.89660   0.39707   0.19609
 This molecule is an asymmetric top.
 Rotational symmetry number  1.
 Rotational temperatures (Kelvin)      7.16763     0.06337     0.06337
 Rotational constants (GHZ):         149.34944     1.32050     1.32050
 Zero-point vibrational energy      97332.5 (Joules/Mol)
                                   23.26302 (Kcal/Mol)
 Warning -- explicit consideration of   3 degrees of freedom as
           vibrations may cause significant error
 Vibrational temperatures:    124.63   124.63   190.61  1021.05  1354.00
          (Kelvin)           1354.00  1871.35  1959.20  1959.20  4451.26
                             4451.26  4551.59

 Zero-point correction=                           0.037072 (Hartree/Particle)
 Thermal correction to Energy=                    0.042330
 Thermal correction to Enthalpy=                  0.043274
 Thermal correction to Gibbs Free Energy=         0.007715
 Sum of electronic and zero-point Energies=             -0.066825
 Sum of electronic and thermal Energies=                -0.061567
 Sum of electronic and thermal Enthalpies=              -0.060623
 Sum of electronic and thermal Free Energies=           -0.096182

                     E (Thermal)             CV                S
                      KCal/Mol        Cal/Mol-Kelvin    Cal/Mol-Kelvin
 Total                   26.562             13.892             74.840
 Electronic               0.000              0.000              0.000
 Translational            0.889              2.981             39.232
 Rotational               0.889              2.981             24.627
 Vibrational             24.785              7.930             10.981
 Vibration     1          0.601              1.959              3.735
 Vibration     2          0.601              1.959              3.735
 Vibration     3          0.613              1.921              2.910

 Normal termination of Gaussian 09 at Fri Mar  3 14:33:35 2017.
