 Gaussian 09, Revision D.01,
 Gaussian 09:  EM64L-G09RevD.01 24-Apr-2013

 -----------------------
 #p opt freq=noraman am1
 -----------------------

 -------------------
 Title Card Required
 -------------------
 Symbolic Z-matrix:
 Charge = -1 Multiplicity = 1

 SCF Done:  E(RAM1) = -0.312219077790E-01 A.U. after   11 cycles
 SCF Done:  E(RAM1) = -0.728062361554E-01 A.U. after    9 cycles
 SCF Done:  E(RAM1) = -0.949622562814E-01 A.U. after   10 cycles
 SCF Done:  E(RAM1) = -0.100915887516     A.U. after    9 cycles
 SCF Done:  E(RAM1) = -0.103662487529     A.U. after   10 cycles
 SCF Done:  E(RAM1) = -0.103853098831     A.U. after    9 cycles
 SCF Done:  E(RAM1) = -0.103889813249     A.U. after    8 cycles
 SCF Done:  E(RAM1) = -0.103896747220     A.U. after    8 cycles
 Optimization completed.
    -- Stationary point found.
 Normal termination of Gaussian 09 at Fri Mar  3 14:34:09 2017.

 -------------------------------------------------------------
 #P Geom=AllCheck Guess=TCheck SCRF=Check GenChk RAM1/ZDO Freq
 -------------------------------------------------------------

 Structure from the checkpoint file:  "/scratch/Gau-27576.chk"
 -------------------
 Title Card Required
 -------------------
 Charge = -1 Multiplicity = 1

                         Standard orientation:
 ---------------------------------------------------------------------
 Center     Atomic      Atomic             Coordinates (Angstroms)
 Number     Number       Type             X           Y           Z
 ---------------------------------------------------------------------
      1          6           0       -0.211610    0.194850   -0.344915
      2          1           0        0.057360    0.993969    0.375849
      3          1           0       -0.912656   -0.536990    0.106061
      4          1           0        0.691926   -0.306563   -0.748205
      5         17           0       -1.053262    0.969866   -1.716754
      6         17           0        1.137558   -1.047485    1.854153
 ---------------------------------------------------------------------

 SCF Done:  E(RAM1) = -0.103896747220     A.U. after    2 cycles

 The electronic state is 1-A.
 Alpha  occ. eigenvalues --   -1.21750  -0.94282  -0.89703  -0.39796  -0.39796
 Alpha  occ. eigenvalues --   -0.38985  -0.28058  -0.28058  -0.12990  -0.12990
 Alpha  occ. eigenvalues --   -0.12731
 Alpha virt. eigenvalues --    0.19911   0.30835   0.30835   0.32615

 Mulliken charges:
               1
     1  C   -0.099934
     2  H    0.116758
     3  H    0.116756
     4  H    0.116756
     5  Cl  -0.271390
     6  Cl  -0.978946
 Sum of Mulliken charges =  -1.00000

 Dipole moment (field-independent basis, Debye):
    X=             -3.9672    Y=              3.6531    Z=             -6.4663  Tot=              8.4200
 N-N= 6.449939158215D+01 E-N=-1.060204230552D+02  KE=-1.280339460340D+01
  Exact polarizability:  14.302  -5.445  13.402   9.639  -8.876  24.099
 Approx polarizability:   8.556  -3.567   7.966   6.314  -5.814  14.973
 Leave Link  601 at Fri Mar  3 14:34:10 2017, MaxMem=    33554432 cpu:         0.0
 (Enter /n/sw/g09_D.01/g09/l701.exe)
 Compute integral second derivatives.
 ... and contract with generalized density number  0.
 Leave Link  701 at Fri Mar  3 14:34:10 2017, MaxMem=    33554432 cpu:         0.0
 (Enter /n/sw/g09_D.01/g09/l702.exe)
 L702 exits ... SP integral derivatives will be done elsewhere.

                      1                      2                      3
                      A                      A                      A
 Frequencies --     86.5825                86.5835               132.4467
 Red. masses --      3.2348                 3.2348                18.3688
 Frc consts  --      0.0143                 0.0143                 0.1899
 IR Inten    --      9.0827                 9.0827                47.9133

                      4                      5                      6
                      A                      A                      A
 Frequencies --    709.7289               941.0735               941.0744
 Red. masses --      9.3781                 1.1474                 1.1474
 Frc consts  --      2.7832                 0.5987                 0.5987
 IR Inten    --    240.9290                 6.3900                 6.3899

                      7                      8                      9
                      A                      A                      A
 Frequencies --   1300.6773              1361.7173              1361.7180
 Red. masses --      1.0943                 1.0837                 1.0837
 Frc consts  --      1.0908                 1.1840                 1.1840
 IR Inten    --     12.0429                12.2972                12.2974

                     10                     11                     12
                      A                      A                      A
 Frequencies --   3093.7716              3093.7740              3163.5159
 Red. masses --      1.0990                 1.0990                 1.0209
 Frc consts  --      6.1978                 6.1978                 6.0198
 IR Inten    --     12.8865                12.8859                 2.4087

 - Thermochemistry -
 -------------------
 Temperature   298.150 Kelvin.  Pressure   1.00000 Atm.
 Atom     1 has atomic number  6 and mass  12.00000

 Molecular mass:    84.96118 amu.
 Principal axes and moments of inertia in atomic units:
                           1         2         3
     Eigenvalues --    12.083861366.775991366.77599
           X            0.47116   0.00000   0.88205
           Y           -0.43386   0.87067   0.23175
           Z            0.76797   0.49188  -0.41022
 This molecule is an asymmetric top.
 Rotational symmetry number  1.
 Rotational temperatures (Kelvin)      7.16773     0.06337     0.06337
 Rotational constants (GHZ):         149.35140     1.32044     1.32044
 Zero-point vibrational energy      97332.1 (Joules/Mol)
                                   23.26294 (Kcal/Mol)
 Warning -- explicit consideration of   3 degrees of freedom as
           vibrations may cause significant error
 Vibrational temperatures:    124.57   124.57   190.56  1021.14  1353.99
          (Kelvin)           1353.99  1871.38  1959.20  1959.21  4451.24
                             4451.25  4551.59

 Zero-point correction=                           0.037072 (Hartree/Particle)
 Thermal correction to Energy=                    0.042330
 Thermal correction to Enthalpy=                  0.043274
 Thermal correction to Gibbs Free Energy=         0.007714
 Sum of electronic and zero-point Energies=             -0.066825
 Sum of electronic and thermal Energies=                -0.061567
 Sum of electronic and thermal Enthalpies=              -0.060623
 Sum of electronic and thermal Free Energies=           -0.096183

                     E (Thermal)             CV                S
                      KCal/Mol        Cal/Mol-Kelvin    Cal/Mol-Kelvin
 Total                   26.562             13.892             74.842
 Electronic               0.000              0.000              0.000
 Translational            0.889              2.981             39.232
 Rotational               0.889              2.981             24.627
 Vibrational             24.785              7.930             10.983
 Vibration     1          0.601              1.959              3.736
 Vibration     2          0.601              1.959              3.736
 Vibration     3          0.613              1.921              2.910

 Normal termination of Gaussian 09 at Fri Mar  3 14:34:10 2017.
