 Gaussian 09, Revision D.01,
 Gaussian 09:  EM64L-G09RevD.01 24-Apr-2013

 --------------------------------------------------------------
 #p am1 IRC=(forward,calcfc,maxpoints=500,stepsize=1,recalc=10)
 --------------------------------------------------------------

 -------------------------
 Cl- + CH3Cl IRC (forward)
 -------------------------
 Symbolic Z-matrix:
 Charge = -1 Multiplicity = 1

 SCF Done:  E(RAM1) = -0.894693725056E-01 A.U. after   12 cycles
 SCF Done:  E(RAM1) = -0.894749614442E-01 A.U. after    9 cycles
 SCF Done:  E(RAM1) = -0.894909980609E-01 A.U. after    8 cycles
 SCF Done:  E(RAM1) = -0.895174953934E-01 A.U. after    9 cycles
 SCF Done:  E(RAM1) = -0.895544325014E-01 A.U. after    8 cycles
 SCF Done:  E(RAM1) = -0.896017454975E-01 A.U. after    8 cycles
 SCF Done:  E(RAM1) = -0.896593525989E-01 A.U. after    8 cycles
 SCF Done:  E(RAM1) = -0.897271535687E-01 A.U. after    8 cycles
 SCF Done:  E(RAM1) = -0.898050300821E-01 A.U. after    8 cycles
 SCF Done:  E(RAM1) = -0.898928459465E-01 A.U. after    8 cycles
 SCF Done:  E(RAM1) = -0.103802797779     A.U. after    7 cycles
 SCF Done:  E(RAM1) = -0.103815987633     A.U. after    7 cycles
 SCF Done:  E(RAM1) = -0.103828140434     A.U. after    7 cycles
 SCF Done:  E(RAM1) = -0.103839271875     A.U. after    7 cycles
 SCF Done:  E(RAM1) = -0.103849397602     A.U. after    7 cycles
 SCF Done:  E(RAM1) = -0.103858533220     A.U. after    7 cycles
 SCF Done:  E(RAM1) = -0.103866694285     A.U. after    7 cycles
 SCF Done:  E(RAM1) = -0.103873896309     A.U. after    7 cycles
 SCF Done:  E(RAM1) = -0.103880154744     A.U. after    7 cycles
 SCF Done:  E(RAM1) = -0.103885485007     A.U. after    7 cycles

                          Input orientation:
 ---------------------------------------------------------------------
 Center     Atomic      Atomic             Coordinates (Angstroms)
 Number     Number       Type             X           Y           Z
 ---------------------------------------------------------------------
      1          6           0       -0.449356    0.000000    0.000000
      2          1           0       -0.115556   -0.725334   -0.769985
      3          1           0       -0.115557   -0.304159    1.013151
      4          1           0       -0.115557    1.029495   -0.243165
      5         17           0        2.398845    0.000000    0.000000
      6         17           0       -2.234654    0.000000    0.000000
 ---------------------------------------------------------------------

 Alpha  occ. eigenvalues --   -1.21693  -0.94338  -0.89635  -0.39734  -0.39734
 Alpha  occ. eigenvalues --   -0.38944  -0.27985  -0.27985  -0.13025  -0.13025
 Alpha  occ. eigenvalues --   -0.12744
 Alpha virt. eigenvalues --    0.20006   0.30913   0.30913   0.32703

 Mulliken charges:
               1
     1  C   -0.099757
     2  H    0.116708
     3  H    0.116708
     4  H    0.116708
     5  Cl  -0.977957
     6  Cl  -0.272411
 Sum of Mulliken charges =  -1.00000

 Dipole moment (field-independent basis, Debye):
    X=             -8.3242    Y=              0.0000    Z=              0.0000  Tot=              8.3242
 N-N= 6.456318555893D+01 E-N=-1.061520091762D+02  KE=-1.280530939719D+01
  Exact polarizability:   0.000   0.000   0.000   0.000   0.000   0.000
 Approx polarizability:  22.349   0.000   4.681   0.000   0.000   4.681
 Leave Link  601 at Wed Mar 15 20:10:24 2017, MaxMem=   134217728 cpu:         0.1
 (Enter /n/sw/g09_D.01/g09/l9999.exe)

 This type of calculation cannot be archived.

 OLD AGE AND TREACHERY WILL ALWAYS PREVAIL OVER YOUTH AND SKILL.

 Normal termination of Gaussian 09 at Wed Mar 15 20:10:24 2017.
