 Gaussian 09, Revision D.01,
 Gaussian 09:  EM64L-G09RevD.01 24-Apr-2013

 ----------------------------------------------------------------------
 #p opt=(ts,calcfc,noeigentest) freq=noraman am1 scrf=(pcm,solvent=wate
 r)
 ----------------------------------------------------------------------

 -------------------
 Title Card Required
 -------------------
 Symbolic Z-matrix:
 Charge = -1 Multiplicity = 1

 SCF Done:  E(RAM1) = -0.178768297999     A.U. after   12 cycles
 SCF Done:  E(RAM1) = -0.178785222415     A.U. after    7 cycles
 Optimization completed.
    -- Stationary point found.
 Normal termination of Gaussian 09 at Fri Mar 17 16:16:43 2017.

 -------------------------------------------------------------
 #P Geom=AllCheck Guess=TCheck SCRF=Check GenChk RAM1/ZDO Freq
 -------------------------------------------------------------

 Structure from the checkpoint file:  "/scratch/ekwan_MeCl_ts_pcm/Gau-28441.chk"
 -------------------
 Title Card Required
 -------------------
 Charge = -1 Multiplicity = 1

                         Standard orientation:
 ---------------------------------------------------------------------
 Center     Atomic      Atomic             Coordinates (Angstroms)
 Number     Number       Type             X           Y           Z
 ---------------------------------------------------------------------
      1          6           0        0.000005    0.000394    0.001106
      2          1           0       -0.000293    0.075004    1.096750
      3          1           0       -0.000112   -0.985793   -0.481947
      4          1           0        0.000416    0.912091   -0.611084
      5         17           0       -2.159325   -0.000102   -0.000312
      6         17           0        2.159323   -0.000114   -0.000297
 ---------------------------------------------------------------------

 SCF Done:  E(RAM1) = -0.178785222415     A.U. after    2 cycles

 The electronic state is 1-A.
 Alpha  occ. eigenvalues --   -1.23311  -1.22419  -1.03467  -0.53549  -0.53540
 Alpha  occ. eigenvalues --   -0.47342  -0.38670  -0.38668  -0.37371  -0.37371
 Alpha  occ. eigenvalues --   -0.33350
 Alpha virt. eigenvalues --    0.04350   0.15129   0.16790   0.16792

 Mulliken charges:
               1
     1  C    0.104842
     2  H    0.115840
     3  H    0.115755
     4  H    0.115781
     5  Cl  -0.726116
     6  Cl  -0.726102
 Sum of Mulliken charges =  -1.00000

 Dipole moment (field-independent basis, Debye):
    X=              0.0002    Y=              0.0018    Z=              0.0051  Tot=              0.0054
 N-N= 6.553824686242D+01 E-N=-1.083857521347D+02  KE=-1.276724351133D+01
  Exact polarizability:  94.786   0.001   9.373  -0.001   0.007   9.399
 Approx polarizability:  48.292   0.001   4.676  -0.001   0.000   4.674
 Leave Link  601 at Fri Mar 17 16:16:48 2017, MaxMem=   134217728 cpu:         0.0
 (Enter /n/sw/g09_D.01/g09/l701.exe)
 Compute integral second derivatives.
 ... and contract with generalized density number  0.
 D2PCM: PCM CHGder 2nd derivatives, FixD1E=F FixD2E=F DoIter=F DoCFld=F I1PDM=0
 GePol: Maximum number of non-zero 2nd derivatives   =     264
 Leave Link  701 at Fri Mar 17 16:16:51 2017, MaxMem=   134217728 cpu:         2.8

 ******    1 imaginary frequencies (negative Signs) ******

                      1                      2                      3
                      A                      A                      A
 Frequencies --   -635.2276               192.6449               198.9260
 Red. masses --     12.7213                 4.2288                 4.2389
 Frc consts  --      3.0244                 0.0925                 0.0988
 IR Inten    --   3174.0512                31.9065                31.9163

                      4                      5                      6
                      A                      A                      A
 Frequencies --    257.4572               995.5969              1003.4771
 Red. masses --     34.9212                 1.0133                 1.0133
 Frc consts  --      1.3638                 0.5918                 0.6012
 IR Inten    --      0.0017                 0.1545                 0.0001

                      7                      8                      9
                      A                      A                      A
 Frequencies --   1143.5124              1317.7079              1318.9829
 Red. masses --      1.0472                 1.1232                 1.1226
 Frc consts  --      0.8068                 1.1491                 1.1507
 IR Inten    --    135.0830                 0.0231                 0.0099

                     10                     11                     12
                      A                      A                      A
 Frequencies --   3163.7019              3171.1487              3172.5935
 Red. masses --      1.0092                 1.1113                 1.1116
 Frc consts  --      5.9516                 6.5844                 6.5919
 IR Inten    --      0.2097                14.3821                14.2262

 - Thermochemistry -
 -------------------
 Temperature   298.150 Kelvin.  Pressure   1.00000 Atm.
 Atom     1 has atomic number  6 and mass  12.00000

 Molecular mass:    84.96118 amu.
 Principal axes and moments of inertia in atomic units:
                           1         2         3
     Eigenvalues --    13.020861171.023231171.02592
           X            1.00000   0.00000   0.00000
           Y            0.00000   0.99999  -0.00491
           Z            0.00000   0.00491   0.99999
 This molecule is an asymmetric top.
 Rotational symmetry number  1.
 Rotational temperatures (Kelvin)      6.65193     0.07396     0.07396
 Rotational constants (GHZ):         138.60383     1.54117     1.54116
    1 imaginary frequencies ignored.
 Zero-point vibrational energy      95316.9 (Joules/Mol)
                                   22.78130 (Kcal/Mol)
 Warning -- explicit consideration of   3 degrees of freedom as
           vibrations may cause significant error
 Vibrational temperatures:    277.17   286.21   370.42  1432.44  1443.78
          (Kelvin)           1645.26  1895.89  1897.72  4551.86  4562.57
                             4564.65

 Zero-point correction=                           0.036304 (Hartree/Particle)
 Thermal correction to Energy=                    0.040863
 Thermal correction to Enthalpy=                  0.041808
 Thermal correction to Gibbs Free Energy=         0.008576
 Sum of electronic and zero-point Energies=             -0.142481
 Sum of electronic and thermal Energies=                -0.137922
 Sum of electronic and thermal Enthalpies=              -0.136978
 Sum of electronic and thermal Free Energies=           -0.170209

                     E (Thermal)             CV                S
                      KCal/Mol        Cal/Mol-Kelvin    Cal/Mol-Kelvin
 Total                   25.642             12.682             69.941
 Electronic               0.000              0.000              0.000
 Translational            0.889              2.981             39.232
 Rotational               0.889              2.981             24.394
 Vibrational             23.865              6.721              6.314
 Vibration     1          0.635              1.850              2.202
 Vibration     2          0.637              1.841              2.143
 Vibration     3          0.667              1.750              1.679

 Optimization completed.
    -- Stationary point found.
 Normal termination of Gaussian 09 at Fri Mar 17 16:16:51 2017.
