 Gaussian 09, Revision D.01,
 Gaussian 09:  EM64L-G09RevD.01 24-Apr-2013

 -----------------------
 #p am1 opt=modredundant
 -----------------------

 ---------
 MeCl scan
 ---------
 Symbolic Z-matrix:
 Charge = -1 Multiplicity = 1

 SCF Done:  E(RAM1) = -0.100451486809     A.U. after   10 cycles
 SCF Done:  E(RAM1) = -0.100600611320     A.U. after    9 cycles
 SCF Done:  E(RAM1) = -0.100636857475     A.U. after    8 cycles
 SCF Done:  E(RAM1) = -0.100648674325     A.U. after    8 cycles
 SCF Done:  E(RAM1) = -0.100649826402     A.U. after    7 cycles
 Optimization completed.
    -- Stationary point found.
 SCF Done:  E(RAM1) = -0.100790897944     A.U. after    8 cycles
 SCF Done:  E(RAM1) = -0.100923211830     A.U. after    9 cycles
 Optimization completed.
 SCF Done:  E(RAM1) = -0.101078442790     A.U. after    8 cycles
 SCF Done:  E(RAM1) = -0.101210223283     A.U. after    9 cycles
 SCF Done:  E(RAM1) = -0.101379266276     A.U. after    8 cycles
 SCF Done:  E(RAM1) = -0.883387353353E-01 A.U. after    8 cycles
 SCF Done:  E(RAM1) = -0.883390641265E-01 A.U. after    6 cycles
 SCF Done:  E(RAM1) = -0.759483914250E-01 A.U. after   10 cycles
 SCF Done:  E(RAM1) = -0.762287070006E-01 A.U. after    9 cycles
 SCF Done:  E(RAM1) = -0.762296686397E-01 A.U. after    8 cycles
 SCF Done:  E(RAM1) = -0.762304676834E-01 A.U. after    7 cycles
    -- Stationary point found.
 SCF Done:  E(RAM1) = -0.588403513419E-01 A.U. after    9 cycles
 SCF Done:  E(RAM1) = -0.591089357197E-01 A.U. after    9 cycles
 SCF Done:  E(RAM1) = -0.591090037766E-01 A.U. after    8 cycles
 SCF Done:  E(RAM1) = -0.591100827975E-01 A.U. after    6 cycles
 Optimization completed.
    -- Stationary point found.

                         Standard orientation:
 ---------------------------------------------------------------------
 Center     Atomic      Atomic             Coordinates (Angstroms)
 Number     Number       Type             X           Y           Z
 ---------------------------------------------------------------------
      1          6           0       -0.672879    0.000002   -0.000001
      2          1           0       -0.205675    0.324276   -0.975418
      3          1           0       -0.205674    0.682605    0.768533
      4          1           0       -0.205670   -1.006868    0.206878
      5         17           0       -2.172882   -0.000001    0.000001
      6         17           0        2.446664   -0.000001    0.000000
 ---------------------------------------------------------------------

 The electronic state is 1-A.
 Alpha  occ. eigenvalues --   -1.31417  -0.92943  -0.91377  -0.43821  -0.43821
 Alpha  occ. eigenvalues --   -0.43757  -0.25703  -0.25703  -0.11781  -0.11781
 Alpha  occ. eigenvalues --   -0.11660
 Alpha virt. eigenvalues --    0.22931   0.30017   0.30017   0.34049

 Mulliken charges:
               1
     1  C   -0.283072
     2  H    0.113573
     3  H    0.113574
     4  H    0.113574
     5  Cl  -0.064750
     6  Cl  -0.992899
 Sum of Mulliken charges =  -1.00000

 Dipole moment (field-independent basis, Debye):
    X=            -10.1687    Y=              0.0000    Z=              0.0000  Tot=             10.1687
 N-N= 6.536862466691D+01 E-N=-1.072607823625D+02  KE=-1.291939004333D+01
 Leave Link  601 at Thu Mar 16 12:17:01 2017, MaxMem=   134217728 cpu:         0.0
 (Enter /n/sw/g09_D.01/g09/l9999.exe)
 1\1\GINC-ENJ12\Scan\RAM1\ZDO\C1H3Cl2(1-)\ROOT\16-Mar-2017\0\\#p am1 op
 t=modredundant\\MeCl scan\\-1,1\C,0.1083034425,0.1965966785,-0.4544263
 895\H,0.9687380631,0.2078606105,0.2765978014\H,-0.725972489,0.72251767
 29,0.0953564913\H,-0.2173529565,-0.8842528632,-0.4785477653\Cl,0.42882
 69237,0.7784269317,-1.7993238283\Cl,-0.5582908639,-1.0134382704,2.3425
 386404\\Version=EM64L-G09RevD.01\State=1-A\HF=-0.1006498,-0.1009232,-0
 .1012102,-0.1015098,-0.1018204,-0.1021391,-0.102461,-0.1027789,-0.1030

 Normal termination of Gaussian 09 at Thu Mar 16 12:17:01 2017.
