 Gaussian 09, Revision D.01,
 Gaussian 09:  EM64L-G09RevD.01 24-Apr-2013

 -----------------------
 #p opt=modredundant am1
 -----------------------

 -----------------
 MeCl + Cl- frozen
 -----------------
 Symbolic Z-matrix:
 Charge = -1 Multiplicity = 1

 SCF Done:  E(RAM1) = -0.100649822553     A.U. after   10 cycles

 The electronic state is 1-A.
 Alpha  occ. eigenvalues --   -1.24676  -0.92896  -0.92264  -0.42281  -0.42281
 Alpha  occ. eigenvalues --   -0.41635  -0.30068  -0.30068  -0.11993  -0.11941
 Alpha  occ. eigenvalues --   -0.11941
 Alpha virt. eigenvalues --    0.17843   0.28270   0.28270   0.30076

 Mulliken charges:
               1
     1  C   -0.135377
     2  H    0.115717
     3  H    0.115717
     4  H    0.115717
     5  Cl  -0.997704
     6  Cl  -0.214070
 Sum of Mulliken charges =  -1.00000

 Dipole moment (field-independent basis, Debye):
    X=             -5.2112    Y=             -2.5228    Z=             -9.3165  Tot=             10.9689
 N-N= 6.256778768844D+01 E-N=-1.019277218544D+02  KE=-1.276827481023D+01
 Leave Link  601 at Thu Mar 16 12:27:32 2017, MaxMem=   134217728 cpu:         0.0
 (Enter /n/sw/g09_D.01/g09/l701.exe)
 Compute integral first derivatives.
 ... and contract with generalized density number  0.
 Leave Link  701 at Thu Mar 16 12:27:33 2017, MaxMem=   134217728 cpu:         0.1
 (Enter /n/sw/g09_D.01/g09/l702.exe)
 L702 exits ... SP integral derivatives will be done elsewhere.
 Leave Link  702 at Thu Mar 16 12:27:33 2017, MaxMem=   134217728 cpu:         0.0
 (Enter /n/sw/g09_D.01/g09/l703.exe)

 Optimization completed.
    -- Stationary point found.

                         Standard orientation:
 ---------------------------------------------------------------------
 Center     Atomic      Atomic             Coordinates (Angstroms)
 Number     Number       Type             X           Y           Z
 ---------------------------------------------------------------------
      1          6           0       -0.337596   -0.163438   -0.603552
      2          1           0        0.678648   -0.609882   -0.641032
      3          1           0       -0.918435   -0.582988    0.245021
      4          1           0       -0.276595    0.942869   -0.527179
      5         17           0        1.325202    0.641550    2.369172
      6         17           0       -1.175675   -0.569160   -2.101848
 ---------------------------------------------------------------------

 Normal termination of Gaussian 09 at Thu Mar 16 12:27:33 2017.
