 Gaussian 09, Revision D.01,
 Gaussian 09:  EM64L-G09RevD.01 24-Apr-2013

 -----------------------
 #p am1 opt freq=noraman
 -----------------------

 -------------
 isolated MeCl
 -------------
 Symbolic Z-matrix:
 Charge =  0 Multiplicity = 1

 SCF Done:  E(RAM1) = -0.293874123263E-01 A.U. after   10 cycles
 SCF Done:  E(RAM1) = -0.301434199862E-01 A.U. after   10 cycles
 SCF Done:  E(RAM1) = -0.302377887022E-01 A.U. after   10 cycles
 SCF Done:  E(RAM1) = -0.302439258233E-01 A.U. after    9 cycles
 Optimization completed.
    -- Stationary point found.
 Normal termination of Gaussian 09 at Thu Mar 16 12:07:26 2017.

 -------------------------------------------------------------
 #P Geom=AllCheck Guess=TCheck SCRF=Check GenChk RAM1/ZDO Freq
 -------------------------------------------------------------

 Structure from the checkpoint file:  "/scratch/ekwan_MeCl_isolated/Gau-18950.chk"
 -------------
 isolated MeCl
 -------------
 Charge =  0 Multiplicity = 1

                         Standard orientation:
 ---------------------------------------------------------------------
 Center     Atomic      Atomic             Coordinates (Angstroms)
 Number     Number       Type             X           Y           Z
 ---------------------------------------------------------------------
      1          6           0       -1.098230    0.000000    0.000010
      2          1           0       -1.446843    0.914075    0.527726
      3          1           0       -1.446843   -0.914088    0.527704
      4          1           0       -1.446892    0.000013   -1.055456
      5         17           0        0.642939    0.000000   -0.000002
 ---------------------------------------------------------------------

 SCF Done:  E(RAM1) = -0.302439258233E-01 A.U. after    2 cycles

 The electronic state is 1-A.
 Alpha  occ. eigenvalues --   -1.36959  -1.06009  -0.55674  -0.55673  -0.54636
 Alpha  occ. eigenvalues --   -0.41667  -0.41667
 Alpha virt. eigenvalues --    0.05872   0.14204   0.14204   0.15420

 Mulliken charges:
               1
     1  C   -0.177531
     2  H    0.098021
     3  H    0.098021
     4  H    0.098014
     5  Cl  -0.116526
 Sum of Mulliken charges =   0.00000

 Dipole moment (field-independent basis, Debye):
    X=             -1.5128    Y=              0.0000    Z=              0.0000  Tot=              1.5128
 N-N= 3.686341109837D+01 E-N=-5.558373645943D+01  KE=-8.357877602285D+00
  Exact polarizability:  22.471   0.000   8.817   0.000   0.000   8.816
 Approx polarizability:  14.555   0.000   4.902   0.000   0.000   4.902
 Leave Link  601 at Thu Mar 16 12:07:27 2017, MaxMem=   134217728 cpu:         0.0
 (Enter /n/sw/g09_D.01/g09/l701.exe)
 Compute integral second derivatives.
 ... and contract with generalized density number  0.
 Leave Link  701 at Thu Mar 16 12:07:27 2017, MaxMem=   134217728 cpu:         0.0
 (Enter /n/sw/g09_D.01/g09/l702.exe)
 L702 exits ... SP integral derivatives will be done elsewhere.

                      1                      2                      3
                      A                      A                      A
 Frequencies --    837.1621               984.4177               984.4260
 Red. masses --      7.1601                 1.1592                 1.1592
 Frc consts  --      2.9566                 0.6619                 0.6619
 IR Inten    --     54.9798                 0.0661                 0.0661

                      4                      5                      6
                      A                      A                      A
 Frequencies --   1345.8090              1368.1468              1368.1898
 Red. masses --      1.1376                 1.0814                 1.0814
 Frc consts  --      1.2139                 1.1926                 1.1927
 IR Inten    --     15.2781                 3.1413                 3.1408

                      7                      8                      9
                      A                      A                      A
 Frequencies --   3075.1039              3075.1820              3149.6763
 Red. masses --      1.0971                 1.0971                 1.0229
 Frc consts  --      6.1126                 6.1129                 5.9786
 IR Inten    --      6.3359                 6.3391                 1.1332

 - Thermochemistry -
 -------------------
 Temperature   298.150 Kelvin.  Pressure   1.00000 Atm.
 Atom     1 has atomic number  6 and mass  12.00000

 Molecular mass:    49.99233 amu.
 Principal axes and moments of inertia in atomic units:
                           1         2         3
     Eigenvalues --    12.02804 130.18562 130.18610
           X            1.00000   0.00000   0.00000
           Y            0.00000   1.00000   0.00000
           Z            0.00000   0.00000   1.00000
 This molecule is an asymmetric top.
 Rotational symmetry number  1.
 Rotational temperatures (Kelvin)      7.20099     0.66531     0.66531
 Rotational constants (GHZ):         150.04448    13.86283    13.86278
 Zero-point vibrational energy      96826.4 (Joules/Mol)
                                   23.14207 (Kcal/Mol)
 Vibrational temperatures:   1204.49  1416.36  1416.37  1936.32  1968.46
          (Kelvin)           1968.52  4424.38  4424.50  4531.68

 Zero-point correction=                           0.036879 (Hartree/Particle)
 Thermal correction to Energy=                    0.039885
 Thermal correction to Enthalpy=                  0.040829
 Thermal correction to Gibbs Free Energy=         0.013251
 Sum of electronic and zero-point Energies=              0.006635
 Sum of electronic and thermal Energies=                 0.009641
 Sum of electronic and thermal Enthalpies=               0.010585
 Sum of electronic and thermal Free Energies=           -0.016993

                     E (Thermal)             CV                S
                      KCal/Mol        Cal/Mol-Kelvin    Cal/Mol-Kelvin
 Total                   25.028              7.706             58.043
 Electronic               0.000              0.000              0.000
 Translational            0.889              2.981             37.651
 Rotational               0.889              2.981             19.950
 Vibrational             23.251              1.744              0.442

 Optimization completed.
    -- Stationary point found.
 Normal termination of Gaussian 09 at Thu Mar 16 12:07:27 2017.
