 Gaussian 09, Revision D.01,
 Gaussian 09:  EM64L-G09RevD.01 24-Apr-2013

 -----------------------------------------------
 #p opt=(ts,calcfc,noeigentest) freq=noraman am1
 -----------------------------------------------

 -------------------
 Title Card Required
 -------------------
 Symbolic Z-matrix:
 Charge = -1 Multiplicity = 1

 SCF Done:  E(RAM1) = -0.894693725056E-01 A.U. after   12 cycles
 Optimization completed.
    -- Stationary point found.
 Normal termination of Gaussian 09 at Fri Mar 17 16:16:31 2017.

 -------------------------------------------------------------
 #P Geom=AllCheck Guess=TCheck SCRF=Check GenChk RAM1/ZDO Freq
 -------------------------------------------------------------

 Structure from the checkpoint file:  "/scratch/ekwan_MeCl_ts/Gau-28428.chk"
 -------------------
 Title Card Required
 -------------------
 Charge = -1 Multiplicity = 1

                         Standard orientation:
 ---------------------------------------------------------------------
 Center     Atomic      Atomic             Coordinates (Angstroms)
 Number     Number       Type             X           Y           Z
 ---------------------------------------------------------------------
      1          6           0       -0.000176    0.000003    0.000003
      2          1           0        0.000425   -0.771369   -0.780176
      3          1           0        0.000436   -0.289971    1.058119
      4          1           0        0.000439    1.061346   -0.277930
      5         17           0        2.153891   -0.000001   -0.000001
      6         17           0       -2.153905   -0.000001   -0.000001
 ---------------------------------------------------------------------

 SCF Done:  E(RAM1) = -0.894693725057E-01 A.U. after    2 cycles

 The electronic state is 1-A.
 Alpha  occ. eigenvalues --   -1.06466  -1.05472  -0.87413  -0.37619  -0.37619
 Alpha  occ. eigenvalues --   -0.30676  -0.21546  -0.21546  -0.20321  -0.20321
 Alpha  occ. eigenvalues --   -0.16206
 Alpha virt. eigenvalues --    0.20826   0.31011   0.32684   0.32684

 Mulliken charges:
               1
     1  C    0.104909
     2  H    0.105630
     3  H    0.105630
     4  H    0.105631
     5  Cl  -0.711191
     6  Cl  -0.710609
 Sum of Mulliken charges =  -1.00000

 Dipole moment (field-independent basis, Debye):
    X=             -0.0052    Y=              0.0000    Z=              0.0000  Tot=              0.0052
 N-N= 6.559866830758D+01 E-N=-1.084950703006D+02  KE=-1.277709486576D+01
  Exact polarizability:  75.871   0.000   8.525   0.000   0.000   8.525
 Approx polarizability:  51.224   0.000   4.685   0.000   0.000   4.684
 Leave Link  601 at Fri Mar 17 16:16:32 2017, MaxMem=   134217728 cpu:         0.0
 (Enter /n/sw/g09_D.01/g09/l701.exe)
 Compute integral second derivatives.
 ... and contract with generalized density number  0.
 Leave Link  701 at Fri Mar 17 16:16:33 2017, MaxMem=   134217728 cpu:         0.1
 (Enter /n/sw/g09_D.01/g09/l702.exe)
 L702 exits ... SP integral derivatives will be done elsewhere.

 ******    1 imaginary frequencies (negative Signs) ******

                      1                      2                      3
                      A                      A                      A
 Frequencies --   -465.5714               217.7991               217.7995
 Red. masses --     12.8475                 4.2248                 4.2248
 Frc consts  --      1.6407                 0.1181                 0.1181
 IR Inten    --   1965.6412                23.6817                23.6817

                      4                      5                      6
                      A                      A                      A
 Frequencies --    265.6798               999.3228               999.3261
 Red. masses --     34.9284                 1.0133                 1.0133
 Frc consts  --      1.4526                 0.5962                 0.5962
 IR Inten    --      0.0000                 0.0000                 0.0000

                      7                      8                      9
                      A                      A                      A
 Frequencies --   1135.3271              1324.2676              1324.2699
 Red. masses --      1.0463                 1.1243                 1.1243
 Frc consts  --      0.7946                 1.1616                 1.1616
 IR Inten    --    120.4525                 0.0124                 0.0124

                     10                     11                     12
                      A                      A                      A
 Frequencies --   3173.1834              3180.4957              3180.4986
 Red. masses --      1.0079                 1.1116                 1.1116
 Frc consts  --      5.9792                 6.6249                 6.6249
 IR Inten    --      0.0000                 4.8628                 4.8627

 - Thermochemistry -
 -------------------
 Temperature   298.150 Kelvin.  Pressure   1.00000 Atm.
 Atom     1 has atomic number  6 and mass  12.00000

 Molecular mass:    84.96118 amu.
 Principal axes and moments of inertia in atomic units:
                           1         2         3
     Eigenvalues --    12.996321165.167131165.16718
           X            1.00000   0.00000   0.00000
           Y            0.00000   1.00000  -0.00001
           Z            0.00000   0.00001   1.00000
 This molecule is an asymmetric top.
 Rotational symmetry number  1.
 Rotational temperatures (Kelvin)      6.66449     0.07434     0.07434
 Rotational constants (GHZ):         138.86551     1.54891     1.54891
    1 imaginary frequencies ignored.
 Zero-point vibrational energy      95808.7 (Joules/Mol)
                                   22.89884 (Kcal/Mol)
 Warning -- explicit consideration of   3 degrees of freedom as
           vibrations may cause significant error
 Vibrational temperatures:    313.36   313.36   382.25  1437.80  1437.81
          (Kelvin)           1633.48  1905.32  1905.33  4565.50  4576.02
                             4576.02

 Zero-point correction=                           0.036492 (Hartree/Particle)
 Thermal correction to Energy=                    0.040972
 Thermal correction to Enthalpy=                  0.041916
 Thermal correction to Gibbs Free Energy=         0.008902
 Sum of electronic and zero-point Energies=             -0.052978
 Sum of electronic and thermal Energies=                -0.048498
 Sum of electronic and thermal Enthalpies=              -0.047554
 Sum of electronic and thermal Free Energies=           -0.080568

                     E (Thermal)             CV                S
                      KCal/Mol        Cal/Mol-Kelvin    Cal/Mol-Kelvin
 Total                   25.710             12.606             69.484
 Electronic               0.000              0.000              0.000
 Translational            0.889              2.981             39.232
 Rotational               0.889              2.981             24.382
 Vibrational             23.933              6.644              5.870
 Vibration     1          0.646              1.814              1.977
 Vibration     2          0.646              1.814              1.977
 Vibration     3          0.672              1.736              1.624

 Optimization completed.
    -- Stationary point found.
 Normal termination of Gaussian 09 at Fri Mar 17 16:16:33 2017.
