 Gaussian 09, Revision D.01,
 Gaussian 09:  EM64L-G09RevD.01 24-Apr-2013

 ------------------------------------------------
 #p am1 opt freq=noraman scrf=(pcm,solvent=water)
 ------------------------------------------------

 -------------
 isolated MeCl
 -------------
 Symbolic Z-matrix:
 Charge =  0 Multiplicity = 1

 SCF Done:  E(RAM1) = -0.318621362219E-01 A.U. after   12 cycles
 SCF Done:  E(RAM1) = -0.320101271619E-01 A.U. after   10 cycles
 SCF Done:  E(RAM1) = -0.319278402571E-01 A.U. after    9 cycles
 SCF Done:  E(RAM1) = -0.320193274552E-01 A.U. after    7 cycles
 SCF Done:  E(RAM1) = -0.320744467127E-01 A.U. after   10 cycles
 Optimization completed.
    -- Stationary point found.
 Normal termination of Gaussian 09 at Fri Mar 17 16:14:33 2017.

 -------------------------------------------------------------
 #P Geom=AllCheck Guess=TCheck SCRF=Check GenChk RAM1/ZDO Freq
 -------------------------------------------------------------

 Structure from the checkpoint file:  "/scratch/ekwan_MeCl_isolated_pcm/Gau-28110.chk"
 -------------
 isolated MeCl
 -------------
 Charge =  0 Multiplicity = 1

                         Standard orientation:
 ---------------------------------------------------------------------
 Center     Atomic      Atomic             Coordinates (Angstroms)
 Number     Number       Type             X           Y           Z
 ---------------------------------------------------------------------
      1          6           0       -1.104574    0.000109   -0.000111
      2          1           0       -1.448975    1.022223   -0.267225
      3          1           0       -1.446909   -0.280288    1.019071
      4          1           0       -1.446127   -0.743767   -0.751307
      5         17           0        0.645262    0.000069    0.000007
 ---------------------------------------------------------------------

 SCF Done:  E(RAM1) = -0.320744467126E-01 A.U. after    2 cycles

 The electronic state is 1-A.
 Alpha  occ. eigenvalues --   -1.37160  -1.05653  -0.55418  -0.55408  -0.54507
 Alpha  occ. eigenvalues --   -0.42141  -0.42135
 Alpha virt. eigenvalues --    0.05591   0.14783   0.14792   0.16042

 Mulliken charges:
               1
     1  C   -0.170555
     2  H    0.107627
     3  H    0.107342
     4  H    0.107391
     5  Cl  -0.151805
 Sum of Mulliken charges =   0.00000

 Dipole moment (field-independent basis, Debye):
    X=             -1.8151    Y=             -0.0003    Z=              0.0001  Tot=              1.8151
 N-N= 3.682873164586D+01 E-N=-5.554670470281D+01  KE=-8.349004552679D+00
  Exact polarizability:  26.404  -0.011   9.694  -0.002  -0.016   9.684
 Approx polarizability:  14.627  -0.007   4.847  -0.001   0.001   4.842
 Leave Link  601 at Fri Mar 17 16:14:37 2017, MaxMem=   134217728 cpu:         0.0
 (Enter /n/sw/g09_D.01/g09/l701.exe)
 Compute integral second derivatives.
 ... and contract with generalized density number  0.
 D2PCM: PCM CHGder 2nd derivatives, FixD1E=F FixD2E=F DoIter=F DoCFld=F I1PDM=0
 GePol: Maximum number of non-zero 2nd derivatives   =     257
 Leave Link  701 at Fri Mar 17 16:14:38 2017, MaxMem=   134217728 cpu:         1.9

                      1                      2                      3
                      A                      A                      A
 Frequencies --    811.5364               980.0757               980.5344
 Red. masses --      7.5610                 1.1562                 1.1563
 Frc consts  --      2.9339                 0.6544                 0.6550
 IR Inten    --     91.0198                 0.0755                 0.0730

                      4                      5                      6
                      A                      A                      A
 Frequencies --   1338.4952              1360.8228              1361.5259
 Red. masses --      1.1285                 1.0815                 1.0816
 Frc consts  --      1.1912                 1.1800                 1.1813
 IR Inten    --     19.4440                 6.1945                 5.8929

                      7                      8                      9
                      A                      A                      A
 Frequencies --   3078.5389              3079.2418              3151.1667
 Red. masses --      1.0979                 1.0979                 1.0225
 Frc consts  --      6.1306                 6.1337                 5.9823
 IR Inten    --     13.6508                13.4314                 2.6220

 - Thermochemistry -
 -------------------
 Temperature   298.150 Kelvin.  Pressure   1.00000 Atm.
 Atom     1 has atomic number  6 and mass  12.00000

 Molecular mass:    49.99233 amu.
 Principal axes and moments of inertia in atomic units:
                           1         2         3
     Eigenvalues --    12.06052 131.18286 131.19118
           X            1.00000   0.00000  -0.00003
           Y            0.00000   1.00000   0.00002
           Z            0.00003  -0.00002   1.00000
 This molecule is an asymmetric top.
 Rotational symmetry number  1.
 Rotational temperatures (Kelvin)      7.18160     0.66025     0.66021
 Rotational constants (GHZ):         149.64035    13.75745    13.75657
 Zero-point vibrational energy      96550.2 (Joules/Mol)
                                   23.07606 (Kcal/Mol)
 Vibrational temperatures:   1167.62  1410.11  1410.77  1925.79  1957.92
          (Kelvin)           1958.93  4429.33  4430.34  4533.82

 Zero-point correction=                           0.036774 (Hartree/Particle)
 Thermal correction to Energy=                    0.039788
 Thermal correction to Enthalpy=                  0.040732
 Thermal correction to Gibbs Free Energy=         0.013134
 Sum of electronic and zero-point Energies=              0.004700
 Sum of electronic and thermal Energies=                 0.007714
 Sum of electronic and thermal Enthalpies=               0.008658
 Sum of electronic and thermal Free Energies=           -0.018940

                     E (Thermal)             CV                S
                      KCal/Mol        Cal/Mol-Kelvin    Cal/Mol-Kelvin
 Total                   24.968              7.764             58.085
 Electronic               0.000              0.000              0.000
 Translational            0.889              2.981             37.651
 Rotational               0.889              2.981             19.968
 Vibrational             23.190              1.803              0.466

 Optimization completed.
    -- Stationary point found.
 Normal termination of Gaussian 09 at Fri Mar 17 16:14:39 2017.
